
     Program BANDS v.6.7MaX starts on 24Jun2021 at 20:45:41 

     This program is part of the open-source Quantum ESPRESSO suite
     for quantum simulation of materials; please cite
         "P. Giannozzi et al., J. Phys.:Condens. Matter 21 395502 (2009);
         "P. Giannozzi et al., J. Phys.:Condens. Matter 29 465901 (2017);
          URL http://www.quantum-espresso.org", 
     in publications or presentations arising from this work. More details at
     http://www.quantum-espresso.org/quote

     Parallel version (MPI & OpenMP), running on      56 processor cores
     Number of MPI processes:                28
     Threads/MPI process:                     2

     MPI processes distributed on     1 nodes
     K-points division:     npool     =      28

     Reading xml data from directory:

     ./outdir/carbyne.save/
     file C.pbe-n-kjpaw_psl.1.0.0.UPF: wavefunction(s)  2S 2P renormalized

     IMPORTANT: XC functional enforced from input :
     Exchange-correlation= PBE
                           (   1   4   3   4   0   0   0)
     Any further DFT definition will be discarded
     Please, verify this is what you really want

 
     G-vector sticks info
     --------------------
     sticks:   dense  smooth     PW     G-vecs:    dense   smooth      PW
     Sum        2927    1445    425               233967    82581   13359
 

     Check: negative core charge=   -0.000002

     negative rho (up, down):  1.845E-04 0.000E+00
     Reading collected, re-writing distributed wavefunctions
     high-symmetry point:  0.0000 0.0000 0.0000   x coordinate   0.0000
     high-symmetry point:  0.5000 0.0000 0.0000   x coordinate   0.5000

     Plottable bands (eV) written to file carbyne.bands.dat.gnu
     Bands written to file carbyne.bands.dat

 **************************************************************************

                    xk=(   0.00000,   0.00000,   0.00000  )

     point group C_4v (4mm) 
     there are  5 classes
     the character table:

       E     2C4   C2    2s_v  2s_d 
A_1    1.00  1.00  1.00  1.00  1.00
A_2    1.00  1.00  1.00 -1.00 -1.00
B_1    1.00 -1.00  1.00  1.00 -1.00
B_2    1.00 -1.00  1.00 -1.00  1.00
E      2.00  0.00 -2.00  0.00  0.00

     the symmetry operations in each class and the name of the first element:

     E        1
                                                                 
     2C4      3    4
                                                                 
     C2       2
                                                                 
     2s_v     5    6
                                                                 
     2s_d     7    8
                                                                 

     Band symmetry, C_4v (4mm)  point group:

     e(  1 -  1) =    -20.67811  eV     1   --> A_1  G_1 D_1   
     e(  2 -  2) =    -13.47580  eV     1   --> A_1  G_1 D_1   
     e(  3 -  4) =     -9.73344  eV     2   --> E    G_5 D_5   
     e(  5 -  5) =     -0.15691  eV     1   --> A_1  G_1 D_1   
     e(  6 -  7) =      1.39601  eV     2   --> E    G_5 D_5   
     e(  8 -  8) =      1.44215  eV     1   --> B_1  G_3 D_2   
     e(  9 -  9) =      1.65835  eV     1   --> A_1  G_1 D_1   
     e( 10 - 10) =      2.40088  eV     1   --> B_2  G_4 D_2'  
     e( 11 - 12) =      3.03259  eV     2   --> E    G_5 D_5   
     e( 13 - 13) =      3.50532  eV     1   --> A_1  G_1 D_1   
     e( 14 - 14) =      4.17401  eV     1   --> A_1  G_1 D_1   
     e( 15 - 15) =      4.54636  eV     1   --> B_1  G_3 D_2   
     e( 16 - 16) =      5.94511  eV     1   --> B_2  G_4 D_2'  

 **************************************************************************

 **************************************************************************

                    xk=(   0.00500,   0.00000,   0.00000  )

     Band symmetry, C_4v (4mm)  point group:

     e(  1 -  1) =    -20.67778  eV     1   --> A_1  G_1 D_1   
     e(  2 -  2) =    -13.47649  eV     1   --> A_1  G_1 D_1   
     e(  3 -  4) =     -9.73290  eV     2   --> E    G_5 D_5   
     e(  5 -  5) =     -0.15636  eV     1   --> A_1  G_1 D_1   
     e(  6 -  7) =      1.39658  eV     2   --> E    G_5 D_5   
     e(  8 -  8) =      1.44273  eV     1   --> B_1  G_3 D_2   
     e(  9 -  9) =      1.65890  eV     1   --> A_1  G_1 D_1   
     e( 10 - 10) =      2.40145  eV     1   --> B_2  G_4 D_2'  
     e( 11 - 12) =      3.03316  eV     2   --> E    G_5 D_5   
     e( 13 - 13) =      3.50587  eV     1   --> A_1  G_1 D_1   
     e( 14 - 14) =      4.17494  eV     1   --> A_1  G_1 D_1   
     e( 15 - 15) =      4.54693  eV     1   --> B_1  G_3 D_2   
     e( 16 - 16) =      5.94568  eV     1   --> B_2  G_4 D_2'  

 **************************************************************************

 **************************************************************************

                    xk=(   0.01000,   0.00000,   0.00000  )

     Band symmetry, C_4v (4mm)  point group:

     e(  1 -  1) =    -20.67681  eV     1   --> A_1  G_1 D_1   
     e(  2 -  2) =    -13.47854  eV     1   --> A_1  G_1 D_1   
     e(  3 -  4) =     -9.73128  eV     2   --> E    G_5 D_5   
     e(  5 -  5) =     -0.15471  eV     1   --> A_1  G_1 D_1   
     e(  6 -  7) =      1.39829  eV     2   --> E    G_5 D_5   
     e(  8 -  8) =      1.44444  eV     1   --> B_1  G_3 D_2   
     e(  9 -  9) =      1.66054  eV     1   --> A_1  G_1 D_1   
     e( 10 - 10) =      2.40317  eV     1   --> B_2  G_4 D_2'  
     e( 11 - 12) =      3.03487  eV     2   --> E    G_5 D_5   
     e( 13 - 13) =      3.50751  eV     1   --> A_1  G_1 D_1   
     e( 14 - 14) =      4.17775  eV     1   --> A_1  G_1 D_1   
     e( 15 - 15) =      4.54864  eV     1   --> B_1  G_3 D_2   
     e( 16 - 16) =      5.94740  eV     1   --> B_2  G_4 D_2'  

 **************************************************************************

 **************************************************************************

                    xk=(   0.01500,   0.00000,   0.00000  )

     Band symmetry, C_4v (4mm)  point group:

     e(  1 -  1) =    -20.67520  eV     1   --> A_1  G_1 D_1   
     e(  2 -  2) =    -13.48197  eV     1   --> A_1  G_1 D_1   
     e(  3 -  4) =     -9.72859  eV     2   --> E    G_5 D_5   
     e(  5 -  5) =     -0.15195  eV     1   --> A_1  G_1 D_1   
     e(  6 -  7) =      1.40113  eV     2   --> E    G_5 D_5   
     e(  8 -  8) =      1.44730  eV     1   --> B_1  G_3 D_2   
     e(  9 -  9) =      1.66329  eV     1   --> A_1  G_1 D_1   
     e( 10 - 10) =      2.40602  eV     1   --> B_2  G_4 D_2'  
     e( 11 - 12) =      3.03771  eV     2   --> E    G_5 D_5   
     e( 13 - 13) =      3.51025  eV     1   --> A_1  G_1 D_1   
     e( 14 - 14) =      4.18242  eV     1   --> A_1  G_1 D_1   
     e( 15 - 15) =      4.55150  eV     1   --> B_1  G_3 D_2   
     e( 16 - 16) =      5.95025  eV     1   --> B_2  G_4 D_2'  

 **************************************************************************

 **************************************************************************

                    xk=(   0.02000,   0.00000,   0.00000  )

     Band symmetry, C_4v (4mm)  point group:

     e(  1 -  1) =    -20.67293  eV     1   --> A_1  G_1 D_1   
     e(  2 -  2) =    -13.48675  eV     1   --> A_1  G_1 D_1   
     e(  3 -  4) =     -9.72481  eV     2   --> E    G_5 D_5   
     e(  5 -  5) =     -0.14809  eV     1   --> A_1  G_1 D_1   
     e(  6 -  7) =      1.40511  eV     2   --> E    G_5 D_5   
     e(  8 -  8) =      1.45129  eV     1   --> B_1  G_3 D_2   
     e(  9 -  9) =      1.66713  eV     1   --> A_1  G_1 D_1   
     e( 10 - 10) =      2.41002  eV     1   --> B_2  G_4 D_2'  
     e( 11 - 12) =      3.04170  eV     2   --> E    G_5 D_5   
     e( 13 - 13) =      3.51409  eV     1   --> A_1  G_1 D_1   
     e( 14 - 14) =      4.18897  eV     1   --> A_1  G_1 D_1   
     e( 15 - 15) =      4.55550  eV     1   --> B_1  G_3 D_2   
     e( 16 - 16) =      5.95425  eV     1   --> B_2  G_4 D_2'  

 **************************************************************************

 **************************************************************************

                    xk=(   0.02500,   0.00000,   0.00000  )

     Band symmetry, C_4v (4mm)  point group:

     e(  1 -  1) =    -20.67003  eV     1   --> A_1  G_1 D_1   
     e(  2 -  2) =    -13.49290  eV     1   --> A_1  G_1 D_1   
     e(  3 -  4) =     -9.71995  eV     2   --> E    G_5 D_5   
     e(  5 -  5) =     -0.14313  eV     1   --> A_1  G_1 D_1   
     e(  6 -  7) =      1.41022  eV     2   --> E    G_5 D_5   
     e(  8 -  8) =      1.45644  eV     1   --> B_1  G_3 D_2   
     e(  9 -  9) =      1.67206  eV     1   --> A_1  G_1 D_1   
     e( 10 - 10) =      2.41516  eV     1   --> B_2  G_4 D_2'  
     e( 11 - 12) =      3.04682  eV     2   --> E    G_5 D_5   
     e( 13 - 13) =      3.51902  eV     1   --> A_1  G_1 D_1   
     e( 14 - 14) =      4.19738  eV     1   --> A_1  G_1 D_1   
     e( 15 - 15) =      4.56064  eV     1   --> B_1  G_3 D_2   
     e( 16 - 16) =      5.95939  eV     1   --> B_2  G_4 D_2'  

 **************************************************************************

 **************************************************************************

                    xk=(   0.03000,   0.00000,   0.00000  )

     Band symmetry, C_4v (4mm)  point group:

     e(  1 -  1) =    -20.66647  eV     1   --> A_1  G_1 D_1   
     e(  2 -  2) =    -13.50040  eV     1   --> A_1  G_1 D_1   
     e(  3 -  4) =     -9.71402  eV     2   --> E    G_5 D_5   
     e(  5 -  5) =     -0.13706  eV     1   --> A_1  G_1 D_1   
     e(  6 -  7) =      1.41648  eV     2   --> E    G_5 D_5   
     e(  8 -  8) =      1.46272  eV     1   --> B_1  G_3 D_2   
     e(  9 -  9) =      1.67810  eV     1   --> A_1  G_1 D_1   
     e( 10 - 10) =      2.42145  eV     1   --> B_2  G_4 D_2'  
     e( 11 - 12) =      3.05308  eV     2   --> E    G_5 D_5   
     e( 13 - 13) =      3.52504  eV     1   --> A_1  G_1 D_1   
     e( 14 - 14) =      4.20767  eV     1   --> A_1  G_1 D_1   
     e( 15 - 15) =      4.56692  eV     1   --> B_1  G_3 D_2   
     e( 16 - 16) =      5.96568  eV     1   --> B_2  G_4 D_2'  

 **************************************************************************

 **************************************************************************

                    xk=(   0.03500,   0.00000,   0.00000  )

     Band symmetry, C_4v (4mm)  point group:

     e(  1 -  1) =    -20.66227  eV     1   --> A_1  G_1 D_1   
     e(  2 -  2) =    -13.50925  eV     1   --> A_1  G_1 D_1   
     e(  3 -  4) =     -9.70700  eV     2   --> E    G_5 D_5   
     e(  5 -  5) =     -0.12989  eV     1   --> A_1  G_1 D_1   
     e(  6 -  7) =      1.42386  eV     2   --> E    G_5 D_5   
     e(  8 -  8) =      1.47015  eV     1   --> B_1  G_3 D_2   
     e(  9 -  9) =      1.68523  eV     1   --> A_1  G_1 D_1   
     e( 10 - 10) =      2.42887  eV     1   --> B_2  G_4 D_2'  
     e( 11 - 12) =      3.06048  eV     2   --> E    G_5 D_5   
     e( 13 - 13) =      3.53216  eV     1   --> A_1  G_1 D_1   
     e( 14 - 14) =      4.21978  eV     1   --> A_1  G_1 D_1   
     e( 15 - 15) =      4.57435  eV     1   --> B_1  G_3 D_2   
     e( 16 - 16) =      5.97310  eV     1   --> B_2  G_4 D_2'  

 **************************************************************************

 **************************************************************************

                    xk=(   0.04000,   0.00000,   0.00000  )

     Band symmetry, C_4v (4mm)  point group:

     e(  1 -  1) =    -20.65742  eV     1   --> A_1  G_1 D_1   
     e(  2 -  2) =    -13.51944  eV     1   --> A_1  G_1 D_1   
     e(  3 -  4) =     -9.69891  eV     2   --> E    G_5 D_5   
     e(  5 -  5) =     -0.12162  eV     1   --> A_1  G_1 D_1   
     e(  6 -  7) =      1.43239  eV     2   --> E    G_5 D_5   
     e(  8 -  8) =      1.47872  eV     1   --> B_1  G_3 D_2   
     e(  9 -  9) =      1.69346  eV     1   --> A_1  G_1 D_1   
     e( 10 - 10) =      2.43744  eV     1   --> B_2  G_4 D_2'  
     e( 11 - 12) =      3.06902  eV     2   --> E    G_5 D_5   
     e( 13 - 13) =      3.54038  eV     1   --> A_1  G_1 D_1   
     e( 14 - 14) =      4.23373  eV     1   --> A_1  G_1 D_1   
     e( 15 - 15) =      4.58292  eV     1   --> B_1  G_3 D_2   
     e( 16 - 16) =      5.98167  eV     1   --> B_2  G_4 D_2'  

 **************************************************************************

 **************************************************************************

                    xk=(   0.04500,   0.00000,   0.00000  )

     Band symmetry, C_4v (4mm)  point group:

     e(  1 -  1) =    -20.65193  eV     1   --> A_1  G_1 D_1   
     e(  2 -  2) =    -13.53097  eV     1   --> A_1  G_1 D_1   
     e(  3 -  4) =     -9.68974  eV     2   --> E    G_5 D_5   
     e(  5 -  5) =     -0.11225  eV     1   --> A_1  G_1 D_1   
     e(  6 -  7) =      1.44205  eV     2   --> E    G_5 D_5   
     e(  8 -  8) =      1.48843  eV     1   --> B_1  G_3 D_2   
     e(  9 -  9) =      1.70278  eV     1   --> A_1  G_1 D_1   
     e( 10 - 10) =      2.44716  eV     1   --> B_2  G_4 D_2'  
     e( 11 - 12) =      3.07870  eV     2   --> E    G_5 D_5   
     e( 13 - 13) =      3.54969  eV     1   --> A_1  G_1 D_1   
     e( 14 - 14) =      4.24950  eV     1   --> A_1  G_1 D_1   
     e( 15 - 15) =      4.59263  eV     1   --> B_1  G_3 D_2   
     e( 16 - 16) =      5.99138  eV     1   --> B_2  G_4 D_2'  

 **************************************************************************

 **************************************************************************

                    xk=(   0.05000,   0.00000,   0.00000  )

     Band symmetry, C_4v (4mm)  point group:

     e(  1 -  1) =    -20.64580  eV     1   --> A_1  G_1 D_1   
     e(  2 -  2) =    -13.54382  eV     1   --> A_1  G_1 D_1   
     e(  3 -  4) =     -9.67948  eV     2   --> E    G_5 D_5   
     e(  5 -  5) =     -0.10178  eV     1   --> A_1  G_1 D_1   
     e(  6 -  7) =      1.45285  eV     2   --> E    G_5 D_5   
     e(  8 -  8) =      1.49928  eV     1   --> B_1  G_3 D_2   
     e(  9 -  9) =      1.71320  eV     1   --> A_1  G_1 D_1   
     e( 10 - 10) =      2.45801  eV     1   --> B_2  G_4 D_2'  
     e( 11 - 12) =      3.08952  eV     2   --> E    G_5 D_5   
     e( 13 - 13) =      3.56010  eV     1   --> A_1  G_1 D_1   
     e( 14 - 14) =      4.26709  eV     1   --> A_1  G_1 D_1   
     e( 15 - 15) =      4.60348  eV     1   --> B_1  G_3 D_2   
     e( 16 - 16) =      6.00224  eV     1   --> B_2  G_4 D_2'  

 **************************************************************************

 **************************************************************************

                    xk=(   0.05500,   0.00000,   0.00000  )

     Band symmetry, C_4v (4mm)  point group:

     e(  1 -  1) =    -20.63902  eV     1   --> A_1  G_1 D_1   
     e(  2 -  2) =    -13.55798  eV     1   --> A_1  G_1 D_1   
     e(  3 -  4) =     -9.66816  eV     2   --> E    G_5 D_5   
     e(  5 -  5) =     -0.09020  eV     1   --> A_1  G_1 D_1   
     e(  6 -  7) =      1.46478  eV     2   --> E    G_5 D_5   
     e(  8 -  8) =      1.51128  eV     1   --> B_1  G_3 D_2   
     e(  9 -  9) =      1.72472  eV     1   --> A_1  G_1 D_1   
     e( 10 - 10) =      2.47001  eV     1   --> B_2  G_4 D_2'  
     e( 11 - 12) =      3.10147  eV     2   --> E    G_5 D_5   
     e( 13 - 13) =      3.57160  eV     1   --> A_1  G_1 D_1   
     e( 14 - 14) =      4.28646  eV     1   --> A_1  G_1 D_1   
     e( 15 - 15) =      4.61548  eV     1   --> B_1  G_3 D_2   
     e( 16 - 16) =      6.01423  eV     1   --> B_2  G_4 D_2'  

 **************************************************************************

 **************************************************************************

                    xk=(   0.06000,   0.00000,   0.00000  )

     Band symmetry, C_4v (4mm)  point group:

     e(  1 -  1) =    -20.63159  eV     1   --> A_1  G_1 D_1   
     e(  2 -  2) =    -13.57345  eV     1   --> A_1  G_1 D_1   
     e(  3 -  4) =     -9.65575  eV     2   --> E    G_5 D_5   
     e(  5 -  5) =     -0.07752  eV     1   --> A_1  G_1 D_1   
     e(  6 -  7) =      1.47785  eV     2   --> E    G_5 D_5   
     e(  8 -  8) =      1.52442  eV     1   --> B_1  G_3 D_2   
     e(  9 -  9) =      1.73733  eV     1   --> A_1  G_1 D_1   
     e( 10 - 10) =      2.48315  eV     1   --> B_2  G_4 D_2'  
     e( 11 - 12) =      3.11456  eV     2   --> E    G_5 D_5   
     e( 13 - 13) =      3.58419  eV     1   --> A_1  G_1 D_1   
     e( 14 - 14) =      4.30760  eV     1   --> A_1  G_1 D_1   
     e( 15 - 15) =      4.62862  eV     1   --> B_1  G_3 D_2   
     e( 16 - 16) =      6.02737  eV     1   --> B_2  G_4 D_2'  

 **************************************************************************

 **************************************************************************

                    xk=(   0.06500,   0.00000,   0.00000  )

     Band symmetry, C_4v (4mm)  point group:

     e(  1 -  1) =    -20.62352  eV     1   --> A_1  G_1 D_1   
     e(  2 -  2) =    -13.59021  eV     1   --> A_1  G_1 D_1   
     e(  3 -  4) =     -9.64226  eV     2   --> E    G_5 D_5   
     e(  5 -  5) =     -0.06374  eV     1   --> A_1  G_1 D_1   
     e(  6 -  7) =      1.49206  eV     2   --> E    G_5 D_5   
     e(  8 -  8) =      1.53870  eV     1   --> B_1  G_3 D_2   
     e(  9 -  9) =      1.75104  eV     1   --> A_1  G_1 D_1   
     e( 10 - 10) =      2.49743  eV     1   --> B_2  G_4 D_2'  
     e( 11 - 12) =      3.12879  eV     2   --> E    G_5 D_5   
     e( 13 - 13) =      3.59789  eV     1   --> A_1  G_1 D_1   
     e( 14 - 14) =      4.33049  eV     1   --> A_1  G_1 D_1   
     e( 15 - 15) =      4.64290  eV     1   --> B_1  G_3 D_2   
     e( 16 - 16) =      6.04165  eV     1   --> B_2  G_4 D_2'  

 **************************************************************************

 **************************************************************************

                    xk=(   0.07000,   0.00000,   0.00000  )

     Band symmetry, C_4v (4mm)  point group:

     e(  1 -  1) =    -20.61482  eV     1   --> A_1  G_1 D_1   
     e(  2 -  2) =    -13.60825  eV     1   --> A_1  G_1 D_1   
     e(  3 -  4) =     -9.62770  eV     2   --> E    G_5 D_5   
     e(  5 -  5) =     -0.04886  eV     1   --> A_1  G_1 D_1   
     e(  6 -  7) =      1.50741  eV     2   --> E    G_5 D_5   
     e(  8 -  8) =      1.55413  eV     1   --> B_1  G_3 D_2   
     e(  9 -  9) =      1.76584  eV     1   --> A_1  G_1 D_1   
     e( 10 - 10) =      2.51285  eV     1   --> B_2  G_4 D_2'  
     e( 11 - 12) =      3.14416  eV     2   --> E    G_5 D_5   
     e( 13 - 13) =      3.61267  eV     1   --> A_1  G_1 D_1   
     e( 14 - 14) =      4.35513  eV     1   --> A_1  G_1 D_1   
     e( 15 - 15) =      4.65832  eV     1   --> B_1  G_3 D_2   
     e( 16 - 16) =      6.05708  eV     1   --> B_2  G_4 D_2'  

 **************************************************************************

 **************************************************************************

                    xk=(   0.07500,   0.00000,   0.00000  )

     Band symmetry, C_4v (4mm)  point group:

     e(  1 -  1) =    -20.60547  eV     1   --> A_1  G_1 D_1   
     e(  2 -  2) =    -13.62754  eV     1   --> A_1  G_1 D_1   
     e(  3 -  4) =     -9.61206  eV     2   --> E    G_5 D_5   
     e(  5 -  5) =     -0.03288  eV     1   --> A_1  G_1 D_1   
     e(  6 -  7) =      1.52389  eV     2   --> E    G_5 D_5   
     e(  8 -  8) =      1.57070  eV     1   --> B_1  G_3 D_2   
     e(  9 -  9) =      1.78174  eV     1   --> A_1  G_1 D_1   
     e( 10 - 10) =      2.52942  eV     1   --> B_2  G_4 D_2'  
     e( 11 - 12) =      3.16067  eV     2   --> E    G_5 D_5   
     e( 13 - 13) =      3.62855  eV     1   --> A_1  G_1 D_1   
     e( 14 - 14) =      4.38150  eV     1   --> A_1  G_1 D_1   
     e( 15 - 15) =      4.67489  eV     1   --> B_1  G_3 D_2   
     e( 16 - 16) =      6.07738  eV     1   -->   ?

 **************************************************************************

 **************************************************************************

                    xk=(   0.08000,   0.00000,   0.00000  )

     Band symmetry, C_4v (4mm)  point group:

     e(  1 -  1) =    -20.59548  eV     1   --> A_1  G_1 D_1   
     e(  2 -  2) =    -13.64809  eV     1   --> A_1  G_1 D_1   
     e(  3 -  4) =     -9.59534  eV     2   --> E    G_5 D_5   
     e(  5 -  5) =     -0.01580  eV     1   --> A_1  G_1 D_1   
     e(  6 -  7) =      1.54150  eV     2   --> E    G_5 D_5   
     e(  8 -  8) =      1.58841  eV     1   --> B_1  G_3 D_2   
     e(  9 -  9) =      1.79873  eV     1   --> A_1  G_1 D_1   
     e( 10 - 10) =      2.54713  eV     1   --> B_2  G_4 D_2'  
     e( 11 - 12) =      3.17832  eV     2   --> E    G_5 D_5   
     e( 13 - 13) =      3.64553  eV     1   --> A_1  G_1 D_1   
     e( 14 - 14) =      4.40954  eV     1   --> A_1  G_1 D_1   
     e( 15 - 15) =      4.69260  eV     1   --> B_1  G_3 D_2   
     e( 16 - 16) =      5.99195  eV     1   -->   ?

 **************************************************************************

 **************************************************************************

                    xk=(   0.08500,   0.00000,   0.00000  )

     Band symmetry, C_4v (4mm)  point group:

     e(  1 -  1) =    -20.58486  eV     1   --> A_1  G_1 D_1   
     e(  2 -  2) =    -13.66988  eV     1   --> A_1  G_1 D_1   
     e(  3 -  4) =     -9.57754  eV     2   --> E    G_5 D_5   
     e(  5 -  5) =      0.00238  eV     1   --> A_1  G_1 D_1   
     e(  6 -  7) =      1.56026  eV     2   --> E    G_5 D_5   
     e(  8 -  8) =      1.60726  eV     1   --> B_1  G_3 D_2   
     e(  9 -  9) =      1.81682  eV     1   --> A_1  G_1 D_1   
     e( 10 - 10) =      2.56598  eV     1   --> B_2  G_4 D_2'  
     e( 11 - 12) =      3.19710  eV     2   --> E    G_5 D_5   
     e( 13 - 13) =      3.66360  eV     1   --> A_1  G_1 D_1   
     e( 14 - 14) =      4.43922  eV     1   --> A_1  G_1 D_1   
     e( 15 - 15) =      4.71145  eV     1   --> B_1  G_3 D_2   
     e( 16 - 16) =      5.90196  eV     1   -->   ?

 **************************************************************************

 **************************************************************************

                    xk=(   0.09000,   0.00000,   0.00000  )

     Band symmetry, C_4v (4mm)  point group:

     e(  1 -  1) =    -20.57359  eV     1   --> A_1  G_1 D_1   
     e(  2 -  2) =    -13.69287  eV     1   --> A_1  G_1 D_1   
     e(  3 -  4) =     -9.55867  eV     2   --> E    G_5 D_5   
     e(  5 -  5) =      0.02166  eV     1   --> A_1  G_1 D_1   
     e(  6 -  7) =      1.58015  eV     2   --> E    G_5 D_5   
     e(  8 -  8) =      1.62725  eV     1   --> B_1  G_3 D_2   
     e(  9 -  9) =      1.83600  eV     1   --> A_1  G_1 D_1   
     e( 10 - 10) =      2.58598  eV     1   --> B_2  G_4 D_2'  
     e( 11 - 12) =      3.21702  eV     2   --> E    G_5 D_5   
     e( 13 - 13) =      3.68276  eV     1   --> A_1  G_1 D_1   
     e( 14 - 14) =      4.47056  eV     1   --> A_1  G_1 D_1   
     e( 15 - 15) =      4.73144  eV     1   --> B_1  G_3 D_2   
     e( 16 - 16) =      5.80804  eV     1   -->   ?

 **************************************************************************

 **************************************************************************

                    xk=(   0.09500,   0.00000,   0.00000  )

     Band symmetry, C_4v (4mm)  point group:

     e(  1 -  1) =    -20.56169  eV     1   --> A_1  G_1 D_1   
     e(  2 -  2) =    -13.71706  eV     1   --> A_1  G_1 D_1   
     e(  3 -  4) =     -9.53872  eV     2   --> E    G_5 D_5   
     e(  5 -  5) =      0.04204  eV     1   --> A_1  G_1 D_1   
     e(  6 -  7) =      1.60117  eV     2   --> E    G_5 D_5   
     e(  8 -  8) =      1.64839  eV     1   --> B_1  G_3 D_2   
     e(  9 -  9) =      1.85627  eV     1   --> A_1  G_1 D_1   
     e( 10 - 10) =      2.60711  eV     1   --> B_2  G_4 D_2'  
     e( 11 - 12) =      3.23808  eV     2   --> E    G_5 D_5   
     e( 13 - 13) =      3.70301  eV     1   --> A_1  G_1 D_1   
     e( 14 - 14) =      4.50354  eV     1   --> A_1  G_1 D_1   
     e( 15 - 15) =      4.75258  eV     1   --> B_1  G_3 D_2   
     e( 16 - 16) =      5.71050  eV     1   -->   ?

 **************************************************************************

 **************************************************************************

                    xk=(   0.10000,   0.00000,   0.00000  )

     Band symmetry, C_4v (4mm)  point group:

     e(  1 -  1) =    -20.54916  eV     1   --> A_1  G_1 D_1   
     e(  2 -  2) =    -13.74244  eV     1   --> A_1  G_1 D_1   
     e(  3 -  4) =     -9.51770  eV     2   --> E    G_5 D_5   
     e(  5 -  5) =      0.06352  eV     1   --> A_1  G_1 D_1   
     e(  6 -  7) =      1.62333  eV     2   --> E    G_5 D_5   
     e(  8 -  8) =      1.67067  eV     1   --> B_1  G_3 D_2   
     e(  9 -  9) =      1.87764  eV     1   --> A_1  G_1 D_1   
     e( 10 - 10) =      2.62939  eV     1   --> B_2  G_4 D_2'  
     e( 11 - 12) =      3.26028  eV     2   --> E    G_5 D_5   
     e( 13 - 13) =      3.72436  eV     1   --> A_1  G_1 D_1   
     e( 14 - 14) =      4.53807  eV     1   --> A_1  G_1 D_1   
     e( 15 - 15) =      4.77486  eV     1   --> B_1  G_3 D_2   
     e( 16 - 16) =      5.60955  eV     1   -->   ?

 **************************************************************************

 **************************************************************************

                    xk=(   0.10500,   0.00000,   0.00000  )

     Band symmetry, C_4v (4mm)  point group:

     e(  1 -  1) =    -20.53599  eV     1   --> A_1  G_1 D_1   
     e(  2 -  2) =    -13.76898  eV     1   --> A_1  G_1 D_1   
     e(  3 -  4) =     -9.49560  eV     2   --> E    G_5 D_5   
     e(  5 -  5) =      0.08610  eV     1   --> A_1  G_1 D_1   
     e(  6 -  7) =      1.64663  eV     2   --> E    G_5 D_5   
     e(  8 -  8) =      1.69409  eV     1   --> B_1  G_3 D_2   
     e(  9 -  9) =      1.90010  eV     1   --> A_1  G_1 D_1   
     e( 10 - 10) =      2.65282  eV     1   --> B_2  G_4 D_2'  
     e( 11 - 12) =      3.28361  eV     2   --> E    G_5 D_5   
     e( 13 - 13) =      3.74680  eV     1   --> A_1  G_1 D_1   
     e( 14 - 14) =      4.57417  eV     1   --> A_1  G_1 D_1   
     e( 15 - 15) =      4.79828  eV     1   --> B_1  G_3 D_2   
     e( 16 - 16) =      5.50541  eV     1   -->   ?

 **************************************************************************

 **************************************************************************

                    xk=(   0.11000,   0.00000,   0.00000  )

     Band symmetry, C_4v (4mm)  point group:

     e(  1 -  1) =    -20.52218  eV     1   --> A_1  G_1 D_1   
     e(  2 -  2) =    -13.79666  eV     1   --> A_1  G_1 D_1   
     e(  3 -  4) =     -9.47243  eV     2   --> E    G_5 D_5   
     e(  5 -  5) =      0.10977  eV     1   --> A_1  G_1 D_1   
     e(  6 -  7) =      1.67106  eV     2   --> E    G_5 D_5   
     e(  8 -  8) =      1.71866  eV     1   --> B_1  G_3 D_2   
     e(  9 -  9) =      1.92365  eV     1   --> A_1  G_1 D_1   
     e( 10 - 10) =      2.67738  eV     1   --> B_2  G_4 D_2'  
     e( 11 - 12) =      3.30808  eV     2   --> E    G_5 D_5   
     e( 13 - 13) =      3.77034  eV     1   --> A_1  G_1 D_1   
     e( 14 - 14) =      4.61177  eV     1   --> A_1  G_1 D_1   
     e( 15 - 15) =      4.82284  eV     1   --> B_1  G_3 D_2   
     e( 16 - 16) =      5.39827  eV     1   -->   ?

 **************************************************************************

 **************************************************************************

                    xk=(   0.11500,   0.00000,   0.00000  )

     Band symmetry, C_4v (4mm)  point group:

     e(  1 -  1) =    -20.50774  eV     1   --> A_1  G_1 D_1   
     e(  2 -  2) =    -13.82546  eV     1   --> A_1  G_1 D_1   
     e(  3 -  4) =     -9.44817  eV     2   --> E    G_5 D_5   
     e(  5 -  5) =      0.13454  eV     1   --> A_1  G_1 D_1   
     e(  6 -  7) =      1.69663  eV     2   --> E    G_5 D_5   
     e(  8 -  8) =      1.74437  eV     1   --> B_1  G_3 D_2   
     e(  9 -  9) =      1.94830  eV     1   --> A_1  G_1 D_1   
     e( 10 - 10) =      2.70309  eV     1   --> B_2  G_4 D_2'  
     e( 11 - 12) =      3.33369  eV     2   --> E    G_5 D_5   
     e( 13 - 13) =      3.79497  eV     1   --> A_1  G_1 D_1   
     e( 14 - 14) =      4.65084  eV     1   --> A_1  G_1 D_1   
     e( 15 - 15) =      4.84855  eV     1   --> B_1  G_3 D_2   
     e( 16 - 16) =      5.28835  eV     1   -->   ?

 **************************************************************************

 **************************************************************************

                    xk=(   0.12000,   0.00000,   0.00000  )

     Band symmetry, C_4v (4mm)  point group:

     e(  1 -  1) =    -20.49268  eV     1   --> A_1  G_1 D_1   
     e(  2 -  2) =    -13.85537  eV     1   --> A_1  G_1 D_1   
     e(  3 -  4) =     -9.42285  eV     2   --> E    G_5 D_5   
     e(  5 -  5) =      0.16041  eV     1   --> A_1  G_1 D_1   
     e(  6 -  7) =      1.72333  eV     2   --> E    G_5 D_5   
     e(  8 -  8) =      1.77122  eV     1   --> B_1  G_3 D_2   
     e(  9 -  9) =      1.97403  eV     1   --> A_1  G_1 D_1   
     e( 10 - 10) =      2.72994  eV     1   --> B_2  G_4 D_2'  
     e( 11 - 12) =      3.36043  eV     2   --> E    G_5 D_5   
     e( 13 - 13) =      3.82068  eV     1   --> A_1  G_1 D_1   
     e( 14 - 14) =      4.69136  eV     1   --> A_1  G_1 D_1   
     e( 15 - 15) =      4.87539  eV     1   --> B_1  G_3 D_2   
     e( 16 - 16) =      5.17581  eV     1   -->   ?

 **************************************************************************

 **************************************************************************

                    xk=(   0.12500,   0.00000,   0.00000  )

     Band symmetry, C_4v (4mm)  point group:

     e(  1 -  1) =    -20.47698  eV     1   --> A_1  G_1 D_1   
     e(  2 -  2) =    -13.88636  eV     1   --> A_1  G_1 D_1   
     e(  3 -  4) =     -9.39645  eV     2   --> E    G_5 D_5   
     e(  5 -  5) =      0.18737  eV     1   --> A_1  G_1 D_1   
     e(  6 -  7) =      1.75117  eV     2   --> E    G_5 D_5   
     e(  8 -  8) =      1.79921  eV     1   --> B_1  G_3 D_2   
     e(  9 -  9) =      2.00086  eV     1   --> A_1  G_1 D_1   
     e( 10 - 10) =      2.75793  eV     1   --> B_2  G_4 D_2'  
     e( 11 - 12) =      3.38830  eV     2   --> E    G_5 D_5   
     e( 13 - 13) =      3.84749  eV     1   --> A_1  G_1 D_1   
     e( 14 - 14) =      4.73329  eV     1   --> A_1  G_1 D_1   
     e( 15 - 15) =      4.90339  eV     1   --> B_1  G_3 D_2   
     e( 16 - 16) =      5.06084  eV     1   -->   ?

 **************************************************************************

 **************************************************************************

                    xk=(   0.13000,   0.00000,   0.00000  )

     Band symmetry, C_4v (4mm)  point group:

     e(  1 -  1) =    -20.46065  eV     1   --> A_1  G_1 D_1   
     e(  2 -  2) =    -13.91841  eV     1   --> A_1  G_1 D_1   
     e(  3 -  4) =     -9.36897  eV     2   --> E    G_5 D_5   
     e(  5 -  5) =      0.21543  eV     1   --> A_1  G_1 D_1   
     e(  6 -  7) =      1.78015  eV     2   --> E    G_5 D_5   
     e(  8 -  8) =      1.82835  eV     1   --> B_1  G_3 D_2   
     e(  9 -  9) =      2.02877  eV     1   --> A_1  G_1 D_1   
     e( 10 - 10) =      2.78707  eV     1   --> B_2  G_4 D_2'  
     e( 11 - 12) =      3.41731  eV     2   --> E    G_5 D_5   
     e( 13 - 13) =      3.87539  eV     1   --> A_1  G_1 D_1   
     e( 14 - 14) =      4.77662  eV     1   --> A_1  G_1 D_1   
     e( 15 - 15) =      4.93252  eV     1   --> B_1  G_3 D_2   
     e( 16 - 16) =      4.94362  eV     1   -->   ?

 **************************************************************************

 **************************************************************************

                    xk=(   0.13500,   0.00000,   0.00000  )

     Band symmetry, C_4v (4mm)  point group:

     e(  1 -  1) =    -20.44370  eV     1   --> A_1  G_1 D_1   
     e(  2 -  2) =    -13.95149  eV     1   --> A_1  G_1 D_1   
     e(  3 -  4) =     -9.34043  eV     2   --> E    G_5 D_5   
     e(  5 -  5) =      0.24458  eV     1   --> A_1  G_1 D_1   
     e(  6 -  7) =      1.81026  eV     2   --> E    G_5 D_5   
     e(  8 -  8) =      1.85863  eV     1   --> B_1  G_3 D_2   
     e(  9 -  9) =      2.05778  eV     1   --> A_1  G_1 D_1   
     e( 10 - 10) =      2.81735  eV     1   --> B_2  G_4 D_2'  
     e( 11 - 12) =      3.44746  eV     2   --> E    G_5 D_5   
     e( 13 - 13) =      3.90438  eV     1   --> A_1  G_1 D_1   
     e( 14 - 14) =      4.82126  eV     1   --> A_1  G_1 D_1   
     e( 15 - 16) =      4.82431  eV     2   --> E    G_5 D_5   

 **************************************************************************

 **************************************************************************

                    xk=(   0.14000,   0.00000,   0.00000  )

     Band symmetry, C_4v (4mm)  point group:

     e(  1 -  1) =    -20.42612  eV     1   --> A_1  G_1 D_1   
     e(  2 -  2) =    -13.98560  eV     1   --> A_1  G_1 D_1   
     e(  3 -  4) =     -9.31081  eV     2   --> E    G_5 D_5   
     e(  5 -  5) =      0.27483  eV     1   --> A_1  G_1 D_1   
     e(  6 -  7) =      1.84150  eV     2   --> E    G_5 D_5   
     e(  8 -  8) =      1.89005  eV     1   --> B_1  G_3 D_2   
     e(  9 -  9) =      2.08787  eV     1   --> A_1  G_1 D_1   
     e( 10 - 10) =      2.84877  eV     1   --> B_2  G_4 D_2'  
     e( 11 - 12) =      3.47873  eV     2   --> E    G_5 D_5   
     e( 13 - 13) =      3.93446  eV     1   --> A_1  G_1 D_1   
     e( 14 - 15) =      4.70305  eV     2   --> E    G_5 D_5   
     e( 16 - 16) =      4.86718  eV     1   --> A_1  G_1 D_1   

 **************************************************************************

 **************************************************************************

                    xk=(   0.14500,   0.00000,   0.00000  )

     Band symmetry, C_4v (4mm)  point group:

     e(  1 -  1) =    -20.40793  eV     1   --> A_1  G_1 D_1   
     e(  2 -  2) =    -14.02070  eV     1   --> A_1  G_1 D_1   
     e(  3 -  4) =     -9.28012  eV     2   --> E    G_5 D_5   
     e(  5 -  5) =      0.30617  eV     1   --> A_1  G_1 D_1   
     e(  6 -  7) =      1.87388  eV     2   --> E    G_5 D_5   
     e(  8 -  8) =      1.92261  eV     1   --> B_1  G_3 D_2   
     e(  9 -  9) =      2.11905  eV     1   --> A_1  G_1 D_1   
     e( 10 - 10) =      2.88133  eV     1   --> B_2  G_4 D_2'  
     e( 11 - 12) =      3.51113  eV     2   --> E    G_5 D_5   
     e( 13 - 13) =      3.96563  eV     1   --> A_1  G_1 D_1   
     e( 14 - 15) =      4.58002  eV     2   --> E    G_5 D_5   
     e( 16 - 16) =      4.91433  eV     1   --> A_1  G_1 D_1   

 **************************************************************************

 **************************************************************************

                    xk=(   0.15000,   0.00000,   0.00000  )

     Band symmetry, C_4v (4mm)  point group:

     e(  1 -  1) =    -20.38911  eV     1   --> A_1  G_1 D_1   
     e(  2 -  2) =    -14.05676  eV     1   --> A_1  G_1 D_1   
     e(  3 -  4) =     -9.24835  eV     2   --> E    G_5 D_5   
     e(  5 -  5) =      0.33860  eV     1   --> A_1  G_1 D_1   
     e(  6 -  7) =      1.90739  eV     2   --> E    G_5 D_5   
     e(  8 -  8) =      1.95632  eV     1   --> B_1  G_3 D_2   
     e(  9 -  9) =      2.15132  eV     1   --> A_1  G_1 D_1   
     e( 10 - 10) =      2.91504  eV     1   --> B_2  G_4 D_2'  
     e( 11 - 12) =      3.54464  eV     2   --> E    G_5 D_5   
     e( 13 - 13) =      3.99789  eV     1   --> A_1  G_1 D_1   
     e( 14 - 15) =      4.45536  eV     2   --> E    G_5 D_5   
     e( 16 - 16) =      4.96269  eV     1   --> A_1  G_1 D_1   

 **************************************************************************

 **************************************************************************

                    xk=(   0.15500,   0.00000,   0.00000  )

     Band symmetry, C_4v (4mm)  point group:

     e(  1 -  1) =    -20.36967  eV     1   --> A_1  G_1 D_1   
     e(  2 -  2) =    -14.09378  eV     1   --> A_1  G_1 D_1   
     e(  3 -  4) =     -9.21552  eV     2   --> E    G_5 D_5   
     e(  5 -  5) =      0.37212  eV     1   --> A_1  G_1 D_1   
     e(  6 -  7) =      1.94203  eV     2   --> E    G_5 D_5   
     e(  8 -  8) =      1.99117  eV     1   --> B_1  G_3 D_2   
     e(  9 -  9) =      2.18468  eV     1   --> A_1  G_1 D_1   
     e( 10 - 10) =      2.94988  eV     1   --> B_2  G_4 D_2'  
     e( 11 - 12) =      3.57926  eV     2   --> E    G_5 D_5   
     e( 13 - 13) =      4.03123  eV     1   --> A_1  G_1 D_1   
     e( 14 - 15) =      4.32921  eV     2   --> E    G_5 D_5   
     e( 16 - 16) =      5.01218  eV     1   --> A_1  G_1 D_1   

 **************************************************************************

 **************************************************************************

                    xk=(   0.16000,   0.00000,   0.00000  )

     Band symmetry, C_4v (4mm)  point group:

     e(  1 -  1) =    -20.34961  eV     1   --> A_1  G_1 D_1   
     e(  2 -  2) =    -14.13173  eV     1   --> A_1  G_1 D_1   
     e(  3 -  4) =     -9.18161  eV     2   --> E    G_5 D_5   
     e(  5 -  5) =      0.40674  eV     1   --> A_1  G_1 D_1   
     e(  6 -  7) =      1.97781  eV     2   --> E    G_5 D_5   
     e(  8 -  8) =      2.02716  eV     1   --> B_1  G_3 D_2   
     e(  9 -  9) =      2.21912  eV     1   --> A_1  G_1 D_1   
     e( 10 - 10) =      2.98587  eV     1   --> B_2  G_4 D_2'  
     e( 11 - 12) =      3.61496  eV     2   --> E    G_5 D_5   
     e( 13 - 13) =      4.06566  eV     1   --> A_1  G_1 D_1   
     e( 14 - 15) =      4.20174  eV     2   --> E    G_5 D_5   
     e( 16 - 16) =      5.06275  eV     1   --> A_1  G_1 D_1   

 **************************************************************************

 **************************************************************************

                    xk=(   0.16500,   0.00000,   0.00000  )

     Band symmetry, C_4v (4mm)  point group:

     e(  1 -  1) =    -20.32895  eV     1   --> A_1  G_1 D_1   
     e(  2 -  2) =    -14.17058  eV     1   --> A_1  G_1 D_1   
     e(  3 -  4) =     -9.14663  eV     2   --> E    G_5 D_5   
     e(  5 -  5) =      0.44244  eV     1   --> A_1  G_1 D_1   
     e(  6 -  7) =      2.01471  eV     2   --> E    G_5 D_5   
     e(  8 -  8) =      2.06429  eV     1   --> B_1  G_3 D_2   
     e(  9 -  9) =      2.25464  eV     1   --> A_1  G_1 D_1   
     e( 10 - 10) =      3.02301  eV     1   --> B_2  G_4 D_2'  
     e( 11 - 12) =      3.65165  eV     2   --> E    G_5 D_5   
     e( 13 - 14) =      4.07314  eV     2   --> E    G_5 D_5   
     e( 15 - 15) =      4.10117  eV     1   --> A_1  G_1 D_1   
     e( 16 - 16) =      5.11435  eV     1   --> A_1  G_1 D_1   

 **************************************************************************

 **************************************************************************

                    xk=(   0.17000,   0.00000,   0.00000  )

     Band symmetry, C_4v (4mm)  point group:

     e(  1 -  1) =    -20.30766  eV     1   --> A_1  G_1 D_1   
     e(  2 -  2) =    -14.21031  eV     1   --> A_1  G_1 D_1   
     e(  3 -  4) =     -9.11059  eV     2   --> E    G_5 D_5   
     e(  5 -  5) =      0.47923  eV     1   --> A_1  G_1 D_1   
     e(  6 -  7) =      2.05275  eV     2   --> E    G_5 D_5   
     e(  8 -  8) =      2.10257  eV     1   --> B_1  G_3 D_2   
     e(  9 -  9) =      2.29125  eV     1   --> A_1  G_1 D_1   
     e( 10 - 10) =      3.06128  eV     1   --> B_2  G_4 D_2'  
     e( 11 - 12) =      3.68907  eV     2   --> E    G_5 D_5   
     e( 13 - 14) =      3.94381  eV     2   --> E    G_5 D_5   
     e( 15 - 15) =      4.13778  eV     1   --> A_1  G_1 D_1   
     e( 16 - 16) =      5.16693  eV     1   --> A_1  G_1 D_1   

 **************************************************************************

 **************************************************************************

                    xk=(   0.17500,   0.00000,   0.00000  )

     Band symmetry, C_4v (4mm)  point group:

     e(  1 -  1) =    -20.28576  eV     1   --> A_1  G_1 D_1   
     e(  2 -  2) =    -14.25090  eV     1   --> A_1  G_1 D_1   
     e(  3 -  4) =     -9.07347  eV     2   --> E    G_5 D_5   
     e(  5 -  5) =      0.51711  eV     1   --> A_1  G_1 D_1   
     e(  6 -  7) =      2.09191  eV     2   --> E    G_5 D_5   
     e(  8 -  8) =      2.14199  eV     1   --> B_1  G_3 D_2   
     e(  9 -  9) =      2.32894  eV     1   --> A_1  G_1 D_1   
     e( 10 - 10) =      3.10070  eV     1   --> B_2  G_4 D_2'  
     e( 11 - 12) =      3.72483  eV     2   --> E    G_5 D_5   
     e( 13 - 14) =      3.81624  eV     2   --> E    G_5 D_5   
     e( 15 - 15) =      4.17546  eV     1   --> A_1  G_1 D_1   
     e( 16 - 16) =      5.22043  eV     1   --> A_1  G_1 D_1   

 **************************************************************************

 **************************************************************************

                    xk=(   0.18000,   0.00000,   0.00000  )

     Band symmetry, C_4v (4mm)  point group:

     e(  1 -  1) =    -20.26326  eV     1   --> A_1  G_1 D_1   
     e(  2 -  2) =    -14.29231  eV     1   --> A_1  G_1 D_1   
     e(  3 -  4) =     -9.03529  eV     2   --> E    G_5 D_5   
     e(  5 -  5) =      0.55607  eV     1   --> A_1  G_1 D_1   
     e(  6 -  7) =      2.13220  eV     2   --> E    G_5 D_5   
     e(  8 -  8) =      2.18255  eV     1   --> B_1  G_3 D_2   
     e(  9 -  9) =      2.36771  eV     1   --> A_1  G_1 D_1   
     e( 10 - 10) =      3.14126  eV     1   --> B_2  G_4 D_2'  
     e( 11 - 12) =      3.67410  eV     2   --> E    G_5 D_5   
     e( 13 - 14) =      3.77536  eV     2   --> E    G_5 D_5   
     e( 15 - 15) =      4.21423  eV     1   --> A_1  G_1 D_1   
     e( 16 - 16) =      5.27482  eV     1   --> A_1  G_1 D_1   

 **************************************************************************

 **************************************************************************

                    xk=(   0.18500,   0.00000,   0.00000  )

     Band symmetry, C_4v (4mm)  point group:

     e(  1 -  1) =    -20.24014  eV     1   --> A_1  G_1 D_1   
     e(  2 -  2) =    -14.33454  eV     1   --> A_1  G_1 D_1   
     e(  3 -  4) =     -8.99603  eV     2   --> E    G_5 D_5   
     e(  5 -  5) =      0.59612  eV     1   --> A_1  G_1 D_1   
     e(  6 -  7) =      2.17361  eV     2   --> E    G_5 D_5   
     e(  8 -  8) =      2.22426  eV     1   --> B_1  G_3 D_2   
     e(  9 -  9) =      2.40756  eV     1   --> A_1  G_1 D_1   
     e( 10 - 10) =      3.18297  eV     1   --> B_2  G_4 D_2'  
     e( 11 - 12) =      3.54430  eV     2   --> E    G_5 D_5   
     e( 13 - 14) =      3.81387  eV     2   --> E    G_5 D_5   
     e( 15 - 15) =      4.25408  eV     1   --> A_1  G_1 D_1   
     e( 16 - 16) =      5.32997  eV     1   --> A_1  G_1 D_1   

 **************************************************************************

 **************************************************************************

                    xk=(   0.19000,   0.00000,   0.00000  )

     Band symmetry, C_4v (4mm)  point group:

     e(  1 -  1) =    -20.21642  eV     1   --> A_1  G_1 D_1   
     e(  2 -  2) =    -14.37754  eV     1   --> A_1  G_1 D_1   
     e(  3 -  4) =     -8.95571  eV     2   --> E    G_5 D_5   
     e(  5 -  5) =      0.63725  eV     1   --> A_1  G_1 D_1   
     e(  6 -  7) =      2.21613  eV     2   --> E    G_5 D_5   
     e(  8 -  8) =      2.26710  eV     1   --> B_1  G_3 D_2   
     e(  9 -  9) =      2.44849  eV     1   --> A_1  G_1 D_1   
     e( 10 - 10) =      3.22581  eV     1   --> B_2  G_4 D_2'  
     e( 11 - 12) =      3.41141  eV     2   --> E    G_5 D_5   
     e( 13 - 14) =      3.85588  eV     2   --> E    G_5 D_5   
     e( 15 - 15) =      4.29501  eV     1   --> A_1  G_1 D_1   
     e( 16 - 16) =      5.37123  eV     1   --> B_1  G_3 D_2   

 **************************************************************************

 **************************************************************************

                    xk=(   0.19500,   0.00000,   0.00000  )

     Band symmetry, C_4v (4mm)  point group:

     e(  1 -  1) =    -20.19210  eV     1   --> A_1  G_1 D_1   
     e(  2 -  2) =    -14.42132  eV     1   --> A_1  G_1 D_1   
     e(  3 -  4) =     -8.91433  eV     2   --> E    G_5 D_5   
     e(  5 -  5) =      0.67946  eV     1   --> A_1  G_1 D_1   
     e(  6 -  7) =      2.25975  eV     2   --> E    G_5 D_5   
     e(  8 -  8) =      2.31109  eV     1   --> B_1  G_3 D_2   
     e(  9 -  9) =      2.49050  eV     1   --> A_1  G_1 D_1   
     e( 10 - 10) =      3.26980  eV     1   --> B_2  G_4 D_2'  
     e( 11 - 12) =      3.27750  eV     2   --> E    G_5 D_5   
     e( 13 - 14) =      3.89942  eV     2   --> E    G_5 D_5   
     e( 15 - 15) =      4.33702  eV     1   --> A_1  G_1 D_1   
     e( 16 - 16) =      5.41522  eV     1   --> B_1  G_3 D_2   

 **************************************************************************

 **************************************************************************

                    xk=(   0.20000,   0.00000,   0.00000  )

     Band symmetry, C_4v (4mm)  point group:

     e(  1 -  1) =    -20.16718  eV     1   --> A_1  G_1 D_1   
     e(  2 -  2) =    -14.46582  eV     1   --> A_1  G_1 D_1   
     e(  3 -  4) =     -8.87188  eV     2   --> E    G_5 D_5   
     e(  5 -  5) =      0.72276  eV     1   --> A_1  G_1 D_1   
     e(  6 -  7) =      2.30444  eV     2   --> E    G_5 D_5   
     e(  8 -  8) =      2.35622  eV     1   --> B_1  G_3 D_2   
     e(  9 -  9) =      2.53359  eV     1   --> A_1  G_1 D_1   
     e( 10 - 11) =      3.14294  eV     2   --> E    G_5 D_5   
     e( 12 - 12) =      3.31493  eV     1   --> B_2  G_4 D_2'  
     e( 13 - 14) =      3.94422  eV     2   --> E    G_5 D_5   
     e( 15 - 15) =      4.38012  eV     1   --> A_1  G_1 D_1   
     e( 16 - 16) =      5.46035  eV     1   --> B_1  G_3 D_2   

 **************************************************************************

 **************************************************************************

                    xk=(   0.20500,   0.00000,   0.00000  )

     Band symmetry, C_4v (4mm)  point group:

     e(  1 -  1) =    -20.14166  eV     1   --> A_1  G_1 D_1   
     e(  2 -  2) =    -14.51104  eV     1   --> A_1  G_1 D_1   
     e(  3 -  4) =     -8.82837  eV     2   --> E    G_5 D_5   
     e(  5 -  5) =      0.76713  eV     1   --> A_1  G_1 D_1   
     e(  6 -  7) =      2.35016  eV     2   --> E    G_5 D_5   
     e(  8 -  8) =      2.40250  eV     1   --> B_1  G_3 D_2   
     e(  9 -  9) =      2.57775  eV     1   --> A_1  G_1 D_1   
     e( 10 - 11) =      3.00793  eV     2   --> E    G_5 D_5   
     e( 12 - 12) =      3.36121  eV     1   --> B_2  G_4 D_2'  
     e( 13 - 14) =      3.99023  eV     2   --> E    G_5 D_5   
     e( 15 - 15) =      4.42428  eV     1   --> A_1  G_1 D_1   
     e( 16 - 16) =      5.50662  eV     1   --> B_1  G_3 D_2   

 **************************************************************************

 **************************************************************************

                    xk=(   0.21000,   0.00000,   0.00000  )

     Band symmetry, C_4v (4mm)  point group:

     e(  1 -  1) =    -20.11555  eV     1   --> A_1  G_1 D_1   
     e(  2 -  2) =    -14.55694  eV     1   --> A_1  G_1 D_1   
     e(  3 -  4) =     -8.78379  eV     2   --> E    G_5 D_5   
     e(  5 -  5) =      0.81258  eV     1   --> A_1  G_1 D_1   
     e(  6 -  7) =      2.39678  eV     2   --> E    G_5 D_5   
     e(  8 -  8) =      2.44992  eV     1   --> B_1  G_3 D_2   
     e(  9 -  9) =      2.62298  eV     1   --> A_1  G_1 D_1   
     e( 10 - 11) =      2.87271  eV     2   --> E    G_5 D_5   
     e( 12 - 12) =      3.40862  eV     1   --> B_2  G_4 D_2'  
     e( 13 - 14) =      4.03740  eV     2   --> E    G_5 D_5   
     e( 15 - 15) =      4.46953  eV     1   --> A_1  G_1 D_1   
     e( 16 - 16) =      5.55403  eV     1   --> B_1  G_3 D_2   

 **************************************************************************

 **************************************************************************

                    xk=(   0.21500,   0.00000,   0.00000  )

     Band symmetry, C_4v (4mm)  point group:

     e(  1 -  1) =    -20.08885  eV     1   --> A_1  G_1 D_1   
     e(  2 -  2) =    -14.60352  eV     1   --> A_1  G_1 D_1   
     e(  3 -  4) =     -8.73815  eV     2   --> E    G_5 D_5   
     e(  5 -  5) =      0.85911  eV     1   --> A_1  G_1 D_1   
     e(  6 -  7) =      2.44385  eV     2   --> E    G_5 D_5   
     e(  8 -  8) =      2.49848  eV     1   --> B_1  G_3 D_2   
     e(  9 -  9) =      2.66929  eV     1   --> A_1  G_1 D_1   
     e( 10 - 11) =      2.73778  eV     2   --> E    G_5 D_5   
     e( 12 - 12) =      3.45718  eV     1   --> B_2  G_4 D_2'  
     e( 13 - 14) =      4.08573  eV     2   --> E    G_5 D_5   
     e( 15 - 15) =      4.51585  eV     1   --> A_1  G_1 D_1   
     e( 16 - 16) =      5.60258  eV     1   --> B_1  G_3 D_2   

 **************************************************************************

 **************************************************************************

                    xk=(   0.22000,   0.00000,   0.00000  )

     Band symmetry, C_4v (4mm)  point group:

     e(  1 -  1) =    -20.06156  eV     1   --> A_1  G_1 D_1   
     e(  2 -  2) =    -14.65074  eV     1   --> A_1  G_1 D_1   
     e(  3 -  4) =     -8.69144  eV     2   --> E    G_5 D_5   
     e(  5 -  5) =      0.90671  eV     1   --> A_1  G_1 D_1   
     e(  6 -  7) =      2.48808  eV     2   --> E    G_5 D_5   
     e(  8 -  8) =      2.54818  eV     1   --> B_1  G_3 D_2   
     e(  9 - 10) =      2.60654  eV     2   --> E    G_5 D_5   
     e( 11 - 11) =      2.71667  eV     1   --> A_1  G_1 D_1   
     e( 12 - 12) =      3.50688  eV     1   --> B_2  G_4 D_2'  
     e( 13 - 14) =      4.13521  eV     2   --> E    G_5 D_5   
     e( 15 - 15) =      4.56324  eV     1   --> A_1  G_1 D_1   
     e( 16 - 16) =      5.65228  eV     1   --> B_1  G_3 D_2   

 **************************************************************************

 **************************************************************************

                    xk=(   0.22500,   0.00000,   0.00000  )

     Band symmetry, C_4v (4mm)  point group:

     e(  1 -  1) =    -20.03367  eV     1   --> A_1  G_1 D_1   
     e(  2 -  2) =    -14.69857  eV     1   --> A_1  G_1 D_1   
     e(  3 -  4) =     -8.64368  eV     2   --> E    G_5 D_5   
     e(  5 -  5) =      0.95539  eV     1   --> A_1  G_1 D_1   
     e(  6 -  7) =      2.45181  eV     2   --> E    G_5 D_5   
     e(  8 -  9) =      2.55670  eV     2   --> E    G_5 D_5   
     e( 10 - 10) =      2.59902  eV     1   --> B_1  G_3 D_2   
     e( 11 - 11) =      2.76512  eV     1   --> A_1  G_1 D_1   
     e( 12 - 12) =      3.55773  eV     1   --> B_2  G_4 D_2'  
     e( 13 - 14) =      4.18584  eV     2   --> E    G_5 D_5   
     e( 15 - 15) =      4.61171  eV     1   --> A_1  G_1 D_1   
     e( 16 - 16) =      5.70312  eV     1   --> B_1  G_3 D_2   

 **************************************************************************

 **************************************************************************

                    xk=(   0.23000,   0.00000,   0.00000  )

     Band symmetry, C_4v (4mm)  point group:

     e(  1 -  1) =    -20.00520  eV     1   --> A_1  G_1 D_1   
     e(  2 -  2) =    -14.74700  eV     1   --> A_1  G_1 D_1   
     e(  3 -  4) =     -8.59485  eV     2   --> E    G_5 D_5   
     e(  5 -  5) =      1.00513  eV     1   --> A_1  G_1 D_1   
     e(  6 -  7) =      2.32132  eV     2   --> E    G_5 D_5   
     e(  8 -  9) =      2.60204  eV     2   --> E    G_5 D_5   
     e( 10 - 10) =      2.65101  eV     1   --> B_1  G_3 D_2   
     e( 11 - 11) =      2.81463  eV     1   --> A_1  G_1 D_1   
     e( 12 - 12) =      3.60971  eV     1   --> B_2  G_4 D_2'  
     e( 13 - 14) =      4.23761  eV     2   --> E    G_5 D_5   
     e( 15 - 15) =      4.66125  eV     1   --> A_1  G_1 D_1   
     e( 16 - 16) =      5.75511  eV     1   --> B_1  G_3 D_2   

 **************************************************************************

 **************************************************************************

                    xk=(   0.23500,   0.00000,   0.00000  )

     Band symmetry, C_4v (4mm)  point group:

     e(  1 -  1) =    -19.97615  eV     1   --> A_1  G_1 D_1   
     e(  2 -  2) =    -14.79601  eV     1   --> A_1  G_1 D_1   
     e(  3 -  4) =     -8.54496  eV     2   --> E    G_5 D_5   
     e(  5 -  5) =      1.05595  eV     1   --> A_1  G_1 D_1   
     e(  6 -  7) =      2.18570  eV     2   --> E    G_5 D_5   
     e(  8 -  9) =      2.65353  eV     2   --> E    G_5 D_5   
     e( 10 - 10) =      2.70414  eV     1   --> B_1  G_3 D_2   
     e( 11 - 11) =      2.86521  eV     1   --> A_1  G_1 D_1   
     e( 12 - 12) =      3.66284  eV     1   --> B_2  G_4 D_2'  
     e( 13 - 14) =      4.29052  eV     2   --> E    G_5 D_5   
     e( 15 - 15) =      4.71185  eV     1   --> A_1  G_1 D_1   
     e( 16 - 16) =      5.80823  eV     1   --> B_1  G_3 D_2   

 **************************************************************************

 **************************************************************************

                    xk=(   0.24000,   0.00000,   0.00000  )

     Band symmetry, C_4v (4mm)  point group:

     e(  1 -  1) =    -19.94654  eV     1   --> A_1  G_1 D_1   
     e(  2 -  2) =    -14.84557  eV     1   --> A_1  G_1 D_1   
     e(  3 -  4) =     -8.49402  eV     2   --> E    G_5 D_5   
     e(  5 -  5) =      1.10783  eV     1   --> A_1  G_1 D_1   
     e(  6 -  7) =      2.04925  eV     2   --> E    G_5 D_5   
     e(  8 -  9) =      2.70693  eV     2   --> E    G_5 D_5   
     e( 10 - 10) =      2.75842  eV     1   --> B_1  G_3 D_2   
     e( 11 - 11) =      2.91686  eV     1   --> A_1  G_1 D_1   
     e( 12 - 12) =      3.71711  eV     1   --> B_2  G_4 D_2'  
     e( 13 - 14) =      4.34458  eV     2   --> E    G_5 D_5   
     e( 15 - 15) =      4.76352  eV     1   --> A_1  G_1 D_1   
     e( 16 - 16) =      5.86250  eV     1   --> B_1  G_3 D_2   

 **************************************************************************

 **************************************************************************

                    xk=(   0.24500,   0.00000,   0.00000  )

     Band symmetry, C_4v (4mm)  point group:

     e(  1 -  1) =    -19.91634  eV     1   --> A_1  G_1 D_1   
     e(  2 -  2) =    -14.89566  eV     1   --> A_1  G_1 D_1   
     e(  3 -  4) =     -8.44202  eV     2   --> E    G_5 D_5   
     e(  5 -  5) =      1.16077  eV     1   --> A_1  G_1 D_1   
     e(  6 -  7) =      1.91254  eV     2   --> E    G_5 D_5   
     e(  8 -  9) =      2.76171  eV     2   --> E    G_5 D_5   
     e( 10 - 10) =      2.81383  eV     1   --> B_1  G_3 D_2   
     e( 11 - 11) =      2.96957  eV     1   --> A_1  G_1 D_1   
     e( 12 - 12) =      3.77253  eV     1   --> B_2  G_4 D_2'  
     e( 13 - 14) =      4.39977  eV     2   --> E    G_5 D_5   
     e( 15 - 15) =      4.81626  eV     1   --> A_1  G_1 D_1   
     e( 16 - 16) =      5.91791  eV     1   --> B_1  G_3 D_2   

 **************************************************************************

 **************************************************************************

                    xk=(   0.25000,   0.00000,   0.00000  )

     Band symmetry, C_4v (4mm)  point group:

     e(  1 -  1) =    -19.88557  eV     1   --> A_1  G_1 D_1   
     e(  2 -  2) =    -14.94624  eV     1   --> A_1  G_1 D_1   
     e(  3 -  4) =     -8.38896  eV     2   --> E    G_5 D_5   
     e(  5 -  5) =      1.21478  eV     1   --> A_1  G_1 D_1   
     e(  6 -  7) =      1.77576  eV     2   --> E    G_5 D_5   
     e(  8 -  9) =      2.81775  eV     2   --> E    G_5 D_5   
     e( 10 - 10) =      2.87039  eV     1   --> B_1  G_3 D_2   
     e( 11 - 11) =      3.02333  eV     1   --> A_1  G_1 D_1   
     e( 12 - 12) =      3.82909  eV     1   --> B_2  G_4 D_2'  
     e( 13 - 14) =      4.45610  eV     2   --> E    G_5 D_5   
     e( 15 - 15) =      4.87006  eV     1   --> A_1  G_1 D_1   
     e( 16 - 16) =      5.97446  eV     1   --> B_1  G_3 D_2   

 **************************************************************************

 **************************************************************************

                    xk=(   0.25500,   0.00000,   0.00000  )

     Band symmetry, C_4v (4mm)  point group:

     e(  1 -  1) =    -19.85423  eV     1   --> A_1  G_1 D_1   
     e(  2 -  2) =    -14.99732  eV     1   --> A_1  G_1 D_1   
     e(  3 -  4) =     -8.33485  eV     2   --> E    G_5 D_5   
     e(  5 -  5) =      1.26985  eV     1   --> A_1  G_1 D_1   
     e(  6 -  7) =      1.63901  eV     2   --> E    G_5 D_5   
     e(  8 -  9) =      2.87498  eV     2   --> E    G_5 D_5   
     e( 10 - 10) =      2.92809  eV     1   --> B_1  G_3 D_2   
     e( 11 - 11) =      3.07816  eV     1   --> A_1  G_1 D_1   
     e( 12 - 12) =      3.88678  eV     1   --> B_2  G_4 D_2'  
     e( 13 - 14) =      4.51357  eV     2   --> E    G_5 D_5   
     e( 15 - 15) =      4.92492  eV     1   --> A_1  G_1 D_1   
     e( 16 - 16) =      6.03216  eV     1   --> B_1  G_3 D_2   

 **************************************************************************

 **************************************************************************

                    xk=(   0.26000,   0.00000,   0.00000  )

     Band symmetry, C_4v (4mm)  point group:

     e(  1 -  1) =    -19.82233  eV     1   --> A_1  G_1 D_1   
     e(  2 -  2) =    -15.04886  eV     1   --> A_1  G_1 D_1   
     e(  3 -  4) =     -8.27968  eV     2   --> E    G_5 D_5   
     e(  5 -  5) =      1.32597  eV     1   --> A_1  G_1 D_1   
     e(  6 -  7) =      1.50235  eV     2   --> E    G_5 D_5   
     e(  8 -  9) =      2.93339  eV     2   --> E    G_5 D_5   
     e( 10 - 10) =      2.98693  eV     1   --> B_1  G_3 D_2   
     e( 11 - 11) =      3.13404  eV     1   --> A_1  G_1 D_1   
     e( 12 - 12) =      3.94563  eV     1   --> B_2  G_4 D_2'  
     e( 13 - 14) =      4.57219  eV     2   --> E    G_5 D_5   
     e( 15 - 15) =      4.98084  eV     1   --> A_1  G_1 D_1   
     e( 16 - 16) =      6.09099  eV     1   --> B_1  G_3 D_2   

 **************************************************************************

 **************************************************************************

                    xk=(   0.26500,   0.00000,   0.00000  )

     Band symmetry, C_4v (4mm)  point group:

     e(  1 -  1) =    -19.78986  eV     1   --> A_1  G_1 D_1   
     e(  2 -  2) =    -15.10084  eV     1   --> A_1  G_1 D_1   
     e(  3 -  4) =     -8.22347  eV     2   --> E    G_5 D_5   
     e(  5 -  6) =      1.36584  eV     2   --> E    G_5 D_5   
     e(  7 -  7) =      1.38315  eV     1   --> A_1  G_1 D_1   
     e(  8 -  9) =      2.99295  eV     2   --> E    G_5 D_5   
     e( 10 - 10) =      3.04692  eV     1   --> B_1  G_3 D_2   
     e( 11 - 11) =      3.19097  eV     1   --> A_1  G_1 D_1   
     e( 12 - 12) =      4.00561  eV     1   --> B_2  G_4 D_2'  
     e( 13 - 14) =      4.63193  eV     2   --> E    G_5 D_5   
     e( 15 - 15) =      5.03781  eV     1   --> A_1  G_1 D_1   
     e( 16 - 16) =      6.15097  eV     1   --> B_1  G_3 D_2   

 **************************************************************************

 **************************************************************************

                    xk=(   0.27000,   0.00000,   0.00000  )

     Band symmetry, C_4v (4mm)  point group:

     e(  1 -  1) =    -19.75684  eV     1   --> A_1  G_1 D_1   
     e(  2 -  2) =    -15.15323  eV     1   --> A_1  G_1 D_1   
     e(  3 -  4) =     -8.16620  eV     2   --> E    G_5 D_5   
     e(  5 -  6) =      1.22953  eV     2   --> E    G_5 D_5   
     e(  7 -  7) =      1.44138  eV     1   --> A_1  G_1 D_1   
     e(  8 -  9) =      3.05367  eV     2   --> E    G_5 D_5   
     e( 10 - 10) =      3.10805  eV     1   --> B_1  G_3 D_2   
     e( 11 - 11) =      3.24895  eV     1   --> A_1  G_1 D_1   
     e( 12 - 12) =      4.06674  eV     1   --> B_2  G_4 D_2'  
     e( 13 - 14) =      4.69282  eV     2   --> E    G_5 D_5   
     e( 15 - 15) =      5.09584  eV     1   --> A_1  G_1 D_1   
     e( 16 - 16) =      6.21210  eV     1   --> B_1  G_3 D_2   

 **************************************************************************

 **************************************************************************

                    xk=(   0.27500,   0.00000,   0.00000  )

     Band symmetry, C_4v (4mm)  point group:

     e(  1 -  1) =    -19.72327  eV     1   --> A_1  G_1 D_1   
     e(  2 -  2) =    -15.20603  eV     1   --> A_1  G_1 D_1   
     e(  3 -  4) =     -8.10788  eV     2   --> E    G_5 D_5   
     e(  5 -  6) =      1.09346  eV     2   --> E    G_5 D_5   
     e(  7 -  7) =      1.50065  eV     1   --> A_1  G_1 D_1   
     e(  8 -  9) =      3.11552  eV     2   --> E    G_5 D_5   
     e( 10 - 10) =      3.17032  eV     1   --> B_1  G_3 D_2   
     e( 11 - 11) =      3.30798  eV     1   --> A_1  G_1 D_1   
     e( 12 - 12) =      4.12901  eV     1   --> B_2  G_4 D_2'  
     e( 13 - 14) =      4.75484  eV     2   --> E    G_5 D_5   
     e( 15 - 15) =      5.15492  eV     1   --> A_1  G_1 D_1   
     e( 16 - 16) =      6.27436  eV     1   --> B_1  G_3 D_2   

 **************************************************************************

 **************************************************************************

                    xk=(   0.28000,   0.00000,   0.00000  )

     Band symmetry, C_4v (4mm)  point group:

     e(  1 -  1) =    -19.68915  eV     1   --> A_1  G_1 D_1   
     e(  2 -  2) =    -15.25919  eV     1   --> A_1  G_1 D_1   
     e(  3 -  4) =     -8.04851  eV     2   --> E    G_5 D_5   
     e(  5 -  6) =      0.95767  eV     2   --> E    G_5 D_5   
     e(  7 -  7) =      1.56097  eV     1   --> A_1  G_1 D_1   
     e(  8 -  9) =      3.17853  eV     2   --> E    G_5 D_5   
     e( 10 - 10) =      3.23373  eV     1   --> B_1  G_3 D_2   
     e( 11 - 11) =      3.36805  eV     1   --> A_1  G_1 D_1   
     e( 12 - 12) =      4.19242  eV     1   --> B_2  G_4 D_2'  
     e( 13 - 14) =      4.81801  eV     2   --> E    G_5 D_5   
     e( 15 - 15) =      5.21505  eV     1   --> A_1  G_1 D_1   
     e( 16 - 16) =      6.33777  eV     1   --> B_1  G_3 D_2   

 **************************************************************************

 **************************************************************************

                    xk=(   0.28500,   0.00000,   0.00000  )

     Band symmetry, C_4v (4mm)  point group:

     e(  1 -  1) =    -19.65448  eV     1   --> A_1  G_1 D_1   
     e(  2 -  2) =    -15.31273  eV     1   --> A_1  G_1 D_1   
     e(  3 -  4) =     -7.98810  eV     2   --> E    G_5 D_5   
     e(  5 -  6) =      0.82219  eV     2   --> E    G_5 D_5   
     e(  7 -  7) =      1.62233  eV     1   --> A_1  G_1 D_1   
     e(  8 -  9) =      3.24267  eV     2   --> E    G_5 D_5   
     e( 10 - 10) =      3.29829  eV     1   --> B_1  G_3 D_2   
     e( 11 - 11) =      3.42917  eV     1   --> A_1  G_1 D_1   
     e( 12 - 12) =      4.25697  eV     1   --> B_2  G_4 D_2'  
     e( 13 - 14) =      4.88230  eV     2   --> E    G_5 D_5   
     e( 15 - 15) =      5.27622  eV     1   --> A_1  G_1 D_1   
     e( 16 - 16) =      6.40232  eV     1   --> B_1  G_3 D_2   

 **************************************************************************

 **************************************************************************

                    xk=(   0.29000,   0.00000,   0.00000  )

     Band symmetry, C_4v (4mm)  point group:

     e(  1 -  1) =    -19.61926  eV     1   --> A_1  G_1 D_1   
     e(  2 -  2) =    -15.36659  eV     1   --> A_1  G_1 D_1   
     e(  3 -  4) =     -7.92664  eV     2   --> E    G_5 D_5   
     e(  5 -  6) =      0.68706  eV     2   --> E    G_5 D_5   
     e(  7 -  7) =      1.68473  eV     1   --> A_1  G_1 D_1   
     e(  8 -  9) =      3.30795  eV     2   --> E    G_5 D_5   
     e( 10 - 10) =      3.36399  eV     1   --> B_1  G_3 D_2   
     e( 11 - 11) =      3.49132  eV     1   --> A_1  G_1 D_1   
     e( 12 - 12) =      4.32267  eV     1   --> B_2  G_4 D_2'  
     e( 13 - 14) =      4.94774  eV     2   --> E    G_5 D_5   
     e( 15 - 15) =      5.33843  eV     1   --> A_1  G_1 D_1   
     e( 16 - 16) =      6.46801  eV     1   --> B_1  G_3 D_2   

 **************************************************************************

 **************************************************************************

                    xk=(   0.29500,   0.00000,   0.00000  )

     Band symmetry, C_4v (4mm)  point group:

     e(  1 -  1) =    -19.58351  eV     1   --> A_1  G_1 D_1   
     e(  2 -  2) =    -15.42077  eV     1   --> A_1  G_1 D_1   
     e(  3 -  4) =     -7.86413  eV     2   --> E    G_5 D_5   
     e(  5 -  6) =      0.55231  eV     2   --> E    G_5 D_5   
     e(  7 -  7) =      1.74816  eV     1   --> A_1  G_1 D_1   
     e(  8 -  9) =      3.37436  eV     2   --> E    G_5 D_5   
     e( 10 - 10) =      3.43083  eV     1   --> B_1  G_3 D_2   
     e( 11 - 11) =      3.55451  eV     1   --> A_1  G_1 D_1   
     e( 12 - 12) =      4.38951  eV     1   --> B_2  G_4 D_2'  
     e( 13 - 14) =      5.01431  eV     2   --> E    G_5 D_5   
     e( 15 - 15) =      5.40168  eV     1   --> A_1  G_1 D_1   
     e( 16 - 16) =      6.53485  eV     1   --> B_1  G_3 D_2   

 **************************************************************************

 **************************************************************************

                    xk=(   0.30000,   0.00000,   0.00000  )

     Band symmetry, C_4v (4mm)  point group:

     e(  1 -  1) =    -19.54723  eV     1   --> A_1  G_1 D_1   
     e(  2 -  2) =    -15.47525  eV     1   --> A_1  G_1 D_1   
     e(  3 -  4) =     -7.80059  eV     2   --> E    G_5 D_5   
     e(  5 -  6) =      0.41796  eV     2   --> E    G_5 D_5   
     e(  7 -  7) =      1.81262  eV     1   --> A_1  G_1 D_1   
     e(  8 -  9) =      3.44192  eV     2   --> E    G_5 D_5   
     e( 10 - 10) =      3.49881  eV     1   --> B_1  G_3 D_2   
     e( 11 - 11) =      3.61873  eV     1   --> A_1  G_1 D_1   
     e( 12 - 12) =      4.45749  eV     1   --> B_2  G_4 D_2'  
     e( 13 - 14) =      5.08202  eV     2   --> E    G_5 D_5   
     e( 15 - 15) =      5.46596  eV     1   --> A_1  G_1 D_1   
     e( 16 - 16) =      6.60282  eV     1   --> B_1  G_3 D_2   

 **************************************************************************

 **************************************************************************

                    xk=(   0.30500,   0.00000,   0.00000  )

     Band symmetry, C_4v (4mm)  point group:

     e(  1 -  1) =    -19.51042  eV     1   --> A_1  G_1 D_1   
     e(  2 -  2) =    -15.52999  eV     1   --> A_1  G_1 D_1   
     e(  3 -  4) =     -7.73600  eV     2   --> E    G_5 D_5   
     e(  5 -  6) =      0.28405  eV     2   --> E    G_5 D_5   
     e(  7 -  7) =      1.87811  eV     1   --> A_1  G_1 D_1   
     e(  8 -  9) =      3.51061  eV     2   --> E    G_5 D_5   
     e( 10 - 10) =      3.56794  eV     1   --> B_1  G_3 D_2   
     e( 11 - 11) =      3.68397  eV     1   --> A_1  G_1 D_1   
     e( 12 - 12) =      4.52662  eV     1   --> B_2  G_4 D_2'  
     e( 13 - 14) =      5.15087  eV     2   --> E    G_5 D_5   
     e( 15 - 15) =      5.53127  eV     1   --> A_1  G_1 D_1   
     e( 16 - 16) =      6.65326  eV     1   --> A_1  G_1 D_1   

 **************************************************************************

 **************************************************************************

                    xk=(   0.31000,   0.00000,   0.00000  )

     Band symmetry, C_4v (4mm)  point group:

     e(  1 -  1) =    -19.47308  eV     1   --> A_1  G_1 D_1   
     e(  2 -  2) =    -15.58501  eV     1   --> A_1  G_1 D_1   
     e(  3 -  4) =     -7.67038  eV     2   --> E    G_5 D_5   
     e(  5 -  6) =      0.15061  eV     2   --> E    G_5 D_5   
     e(  7 -  7) =      1.94462  eV     1   --> A_1  G_1 D_1   
     e(  8 -  9) =      3.58043  eV     2   --> E    G_5 D_5   
     e( 10 - 10) =      3.63821  eV     1   --> B_1  G_3 D_2   
     e( 11 - 11) =      3.75024  eV     1   --> A_1  G_1 D_1   
     e( 12 - 12) =      4.59688  eV     1   --> B_2  G_4 D_2'  
     e( 13 - 14) =      5.22085  eV     2   --> E    G_5 D_5   
     e( 15 - 15) =      5.59760  eV     1   --> A_1  G_1 D_1   
     e( 16 - 16) =      6.69375  eV     1   --> A_1  G_1 D_1   

 **************************************************************************

 **************************************************************************

                    xk=(   0.31500,   0.00000,   0.00000  )

     Band symmetry, C_4v (4mm)  point group:

     e(  1 -  1) =    -19.43522  eV     1   --> A_1  G_1 D_1   
     e(  2 -  2) =    -15.64026  eV     1   --> A_1  G_1 D_1   
     e(  3 -  4) =     -7.60372  eV     2   --> E    G_5 D_5   
     e(  5 -  6) =      0.01766  eV     2   --> E    G_5 D_5   
     e(  7 -  7) =      2.01214  eV     1   --> A_1  G_1 D_1   
     e(  8 -  9) =      3.65139  eV     2   --> E    G_5 D_5   
     e( 10 - 10) =      3.70962  eV     1   --> B_1  G_3 D_2   
     e( 11 - 11) =      3.81753  eV     1   --> A_1  G_1 D_1   
     e( 12 - 12) =      4.66829  eV     1   --> B_2  G_4 D_2'  
     e( 13 - 14) =      5.29197  eV     2   --> E    G_5 D_5   
     e( 15 - 15) =      5.66495  eV     1   --> A_1  G_1 D_1   
     e( 16 - 16) =      6.73140  eV     1   --> A_1  G_1 D_1   

 **************************************************************************

 **************************************************************************

                    xk=(   0.32000,   0.00000,   0.00000  )

     Band symmetry, C_4v (4mm)  point group:

     e(  1 -  1) =    -19.39685  eV     1   --> A_1  G_1 D_1   
     e(  2 -  2) =    -15.69574  eV     1   --> A_1  G_1 D_1   
     e(  3 -  4) =     -7.53602  eV     2   --> E    G_5 D_5   
     e(  5 -  6) =     -0.11478  eV     2   --> E    G_5 D_5   
     e(  7 -  7) =      2.08067  eV     1   --> A_1  G_1 D_1   
     e(  8 -  9) =      3.72348  eV     2   --> E    G_5 D_5   
     e( 10 - 10) =      3.78217  eV     1   --> B_1  G_3 D_2   
     e( 11 - 11) =      3.88583  eV     1   --> A_1  G_1 D_1   
     e( 12 - 12) =      4.74085  eV     1   --> B_2  G_4 D_2'  
     e( 13 - 14) =      5.36422  eV     2   --> E    G_5 D_5   
     e( 15 - 15) =      5.73331  eV     1   --> A_1  G_1 D_1   
     e( 16 - 16) =      6.76596  eV     1   --> A_1  G_1 D_1   

 **************************************************************************

 **************************************************************************

                    xk=(   0.32500,   0.00000,   0.00000  )

     Band symmetry, C_4v (4mm)  point group:

     e(  1 -  1) =    -19.35796  eV     1   --> A_1  G_1 D_1   
     e(  2 -  2) =    -15.75141  eV     1   --> A_1  G_1 D_1   
     e(  3 -  4) =     -7.46729  eV     2   --> E    G_5 D_5   
     e(  5 -  6) =     -0.24669  eV     2   --> E    G_5 D_5   
     e(  7 -  7) =      2.15020  eV     1   --> A_1  G_1 D_1   
     e(  8 -  9) =      3.79670  eV     2   --> E    G_5 D_5   
     e( 10 - 10) =      3.85587  eV     1   --> B_1  G_3 D_2   
     e( 11 - 11) =      3.95515  eV     1   --> A_1  G_1 D_1   
     e( 12 - 12) =      4.81454  eV     1   --> B_2  G_4 D_2'  
     e( 13 - 14) =      5.43761  eV     2   --> E    G_5 D_5   
     e( 15 - 15) =      5.80268  eV     1   --> A_1  G_1 D_1   
     e( 16 - 16) =      6.79715  eV     1   --> A_1  G_1 D_1   

 **************************************************************************

 **************************************************************************

                    xk=(   0.33000,   0.00000,   0.00000  )

     Band symmetry, C_4v (4mm)  point group:

     e(  1 -  1) =    -19.31855  eV     1   --> A_1  G_1 D_1   
     e(  2 -  2) =    -15.80726  eV     1   --> A_1  G_1 D_1   
     e(  3 -  4) =     -7.39752  eV     2   --> E    G_5 D_5   
     e(  5 -  6) =     -0.37803  eV     2   --> E    G_5 D_5   
     e(  7 -  7) =      2.22073  eV     1   --> A_1  G_1 D_1   
     e(  8 -  9) =      3.87106  eV     2   --> E    G_5 D_5   
     e( 10 - 10) =      3.93071  eV     1   --> B_1  G_3 D_2   
     e( 11 - 11) =      4.02547  eV     1   --> A_1  G_1 D_1   
     e( 12 - 12) =      4.88938  eV     1   --> B_2  G_4 D_2'  
     e( 13 - 14) =      5.51214  eV     2   --> E    G_5 D_5   
     e( 15 - 15) =      5.87303  eV     1   --> A_1  G_1 D_1   
     e( 16 - 16) =      6.82472  eV     1   --> A_1  G_1 D_1   

 **************************************************************************

 **************************************************************************

                    xk=(   0.33500,   0.00000,   0.00000  )

     Band symmetry, C_4v (4mm)  point group:

     e(  1 -  1) =    -19.27867  eV     1   --> A_1  G_1 D_1   
     e(  2 -  2) =    -15.86328  eV     1   --> A_1  G_1 D_1   
     e(  3 -  4) =     -7.32674  eV     2   --> E    G_5 D_5   
     e(  5 -  6) =     -0.50879  eV     2   --> E    G_5 D_5   
     e(  7 -  7) =      2.29225  eV     1   --> A_1  G_1 D_1   
     e(  8 -  9) =      3.94655  eV     2   --> E    G_5 D_5   
     e( 10 - 10) =      4.00669  eV     1   --> B_1  G_3 D_2   
     e( 11 - 11) =      4.09678  eV     1   --> A_1  G_1 D_1   
     e( 12 - 12) =      4.96536  eV     1   --> B_2  G_4 D_2'  
     e( 13 - 14) =      5.58780  eV     2   --> E    G_5 D_5   
     e( 15 - 15) =      5.94437  eV     1   --> A_1  G_1 D_1   
     e( 16 - 16) =      6.84839  eV     1   --> A_1  G_1 D_1   

 **************************************************************************

 **************************************************************************

                    xk=(   0.34000,   0.00000,   0.00000  )

     Band symmetry, C_4v (4mm)  point group:

     e(  1 -  1) =    -19.23827  eV     1   --> A_1  G_1 D_1   
     e(  2 -  2) =    -15.91945  eV     1   --> A_1  G_1 D_1   
     e(  3 -  4) =     -7.25492  eV     2   --> E    G_5 D_5   
     e(  5 -  6) =     -0.63895  eV     2   --> E    G_5 D_5   
     e(  7 -  7) =      2.36476  eV     1   --> A_1  G_1 D_1   
     e(  8 -  9) =      4.02317  eV     2   --> E    G_5 D_5   
     e( 10 - 10) =      4.08382  eV     1   --> B_1  G_3 D_2   
     e( 11 - 11) =      4.16909  eV     1   --> A_1  G_1 D_1   
     e( 12 - 12) =      5.04248  eV     1   --> B_2  G_4 D_2'  
     e( 13 - 14) =      5.66459  eV     2   --> E    G_5 D_5   
     e( 15 - 15) =      6.01668  eV     1   --> A_1  G_1 D_1   
     e( 16 - 16) =      6.86789  eV     1   --> A_1  G_1 D_1   

 **************************************************************************

 **************************************************************************

                    xk=(   0.34500,   0.00000,   0.00000  )

     Band symmetry, C_4v (4mm)  point group:

     e(  1 -  1) =    -19.19738  eV     1   --> A_1  G_1 D_1   
     e(  2 -  2) =    -15.97574  eV     1   --> A_1  G_1 D_1   
     e(  3 -  4) =     -7.18207  eV     2   --> E    G_5 D_5   
     e(  5 -  6) =     -0.76848  eV     2   --> E    G_5 D_5   
     e(  7 -  7) =      2.43825  eV     1   --> A_1  G_1 D_1   
     e(  8 -  9) =      4.10093  eV     2   --> E    G_5 D_5   
     e( 10 - 10) =      4.16208  eV     1   --> B_1  G_3 D_2   
     e( 11 - 11) =      4.24239  eV     1   --> A_1  G_1 D_1   
     e( 12 - 12) =      5.12075  eV     1   --> B_2  G_4 D_2'  
     e( 13 - 14) =      5.74252  eV     2   --> E    G_5 D_5   
     e( 15 - 15) =      6.08995  eV     1   --> A_1  G_1 D_1   
     e( 16 - 16) =      6.88298  eV     1   --> A_1  G_1 D_1   

 **************************************************************************

 **************************************************************************

                    xk=(   0.35000,   0.00000,   0.00000  )

     Band symmetry, C_4v (4mm)  point group:

     e(  1 -  1) =    -19.15601  eV     1   --> A_1  G_1 D_1   
     e(  2 -  2) =    -16.03215  eV     1   --> A_1  G_1 D_1   
     e(  3 -  4) =     -7.10821  eV     2   --> E    G_5 D_5   
     e(  5 -  6) =     -0.89738  eV     2   --> E    G_5 D_5   
     e(  7 -  7) =      2.51270  eV     1   --> A_1  G_1 D_1   
     e(  8 -  9) =      4.17981  eV     2   --> E    G_5 D_5   
     e( 10 - 10) =      4.24149  eV     1   --> B_1  G_3 D_2   
     e( 11 - 11) =      4.31667  eV     1   --> A_1  G_1 D_1   
     e( 12 - 12) =      5.20015  eV     1   --> B_2  G_4 D_2'  
     e( 13 - 14) =      5.82159  eV     2   --> E    G_5 D_5   
     e( 15 - 15) =      6.16414  eV     1   --> A_1  G_1 D_1   
     e( 16 - 16) =      6.89343  eV     1   --> A_1  G_1 D_1   

 **************************************************************************

 **************************************************************************

                    xk=(   0.35500,   0.00000,   0.00000  )

     Band symmetry, C_4v (4mm)  point group:

     e(  1 -  1) =    -19.11417  eV     1   --> A_1  G_1 D_1   
     e(  2 -  2) =    -16.08865  eV     1   --> A_1  G_1 D_1   
     e(  3 -  4) =     -7.03334  eV     2   --> E    G_5 D_5   
     e(  5 -  6) =     -1.02562  eV     2   --> E    G_5 D_5   
     e(  7 -  7) =      2.58811  eV     1   --> A_1  G_1 D_1   
     e(  8 -  9) =      4.25983  eV     2   --> E    G_5 D_5   
     e( 10 - 10) =      4.32205  eV     1   --> B_1  G_3 D_2   
     e( 11 - 11) =      4.39192  eV     1   --> A_1  G_1 D_1   
     e( 12 - 12) =      5.28070  eV     1   --> B_2  G_4 D_2'  
     e( 13 - 14) =      5.90179  eV     2   --> E    G_5 D_5   
     e( 15 - 15) =      6.23922  eV     1   --> A_1  G_1 D_1   
     e( 16 - 16) =      6.89903  eV     1   --> A_1  G_1 D_1   

 **************************************************************************

 **************************************************************************

                    xk=(   0.36000,   0.00000,   0.00000  )

     Band symmetry, C_4v (4mm)  point group:

     e(  1 -  1) =    -19.07184  eV     1   --> A_1  G_1 D_1   
     e(  2 -  2) =    -16.14524  eV     1   --> A_1  G_1 D_1   
     e(  3 -  4) =     -6.95744  eV     2   --> E    G_5 D_5   
     e(  5 -  6) =     -1.15319  eV     2   --> E    G_5 D_5   
     e(  7 -  7) =      2.66448  eV     1   --> A_1  G_1 D_1   
     e(  8 -  9) =      4.34098  eV     2   --> E    G_5 D_5   
     e( 10 - 10) =      4.40374  eV     1   --> B_1  G_3 D_2   
     e( 11 - 11) =      4.46814  eV     1   --> A_1  G_1 D_1   
     e( 12 - 12) =      5.36240  eV     1   --> B_2  G_4 D_2'  
     e( 13 - 14) =      5.98313  eV     2   --> E    G_5 D_5   
     e( 15 - 15) =      6.31513  eV     1   --> A_1  G_1 D_1   
     e( 16 - 16) =      6.89959  eV     1   --> A_1  G_1 D_1   

 **************************************************************************

 **************************************************************************

                    xk=(   0.36500,   0.00000,   0.00000  )

     Band symmetry, C_4v (4mm)  point group:

     e(  1 -  1) =    -19.02904  eV     1   --> A_1  G_1 D_1   
     e(  2 -  2) =    -16.20188  eV     1   --> A_1  G_1 D_1   
     e(  3 -  4) =     -6.88053  eV     2   --> E    G_5 D_5   
     e(  5 -  6) =     -1.28006  eV     2   --> E    G_5 D_5   
     e(  7 -  7) =      2.74178  eV     1   --> A_1  G_1 D_1   
     e(  8 -  9) =      4.42326  eV     2   --> E    G_5 D_5   
     e( 10 - 10) =      4.48658  eV     1   --> B_1  G_3 D_2   
[...]

 **************************************************************************

 **************************************************************************

                    xk=(   0.41000,   0.00000,   0.00000  )

     Band symmetry, C_4v (4mm)  point group:

     e(  1 -  1) =    -18.62385  eV     1   --> A_1  G_1 D_1   
     e(  2 -  2) =    -16.71189  eV     1   --> A_1  G_1 D_1   
     e(  3 -  4) =     -6.14348  eV     2   --> E    G_5 D_5   
     e(  5 -  6) =     -2.38820  eV     2   --> E    G_5 D_5   
     e(  7 -  7) =      3.47786  eV     1   --> A_1  G_1 D_1   
     e(  8 -  9) =      5.21458  eV     2   --> E    G_5 D_5   
     e( 10 - 10) =      5.28131  eV     1   --> A_1  G_1 D_1   
     e( 11 - 11) =      5.28353  eV     1   --> B_1  G_3 D_2   
     e( 12 - 12) =      6.24216  eV     1   --> B_2  G_4 D_2'  
     e( 13 - 13) =      6.58783  eV     1   --> A_1  G_1 D_1   
     e( 14 - 15) =      6.85885  eV     2   --> E    G_5 D_5   
     e( 16 - 16) =      7.14196  eV     1   --> A_1  G_1 D_1   

 **************************************************************************

 **************************************************************************

                    xk=(   0.41500,   0.00000,   0.00000  )

     Band symmetry, C_4v (4mm)  point group:

     e(  1 -  1) =    -18.57675  eV     1   --> A_1  G_1 D_1   
     e(  2 -  2) =    -16.76829  eV     1   --> A_1  G_1 D_1   
     e(  3 -  4) =     -6.05672  eV     2   --> E    G_5 D_5   
     e(  5 -  6) =     -2.50730  eV     2   --> E    G_5 D_5   
     e(  7 -  7) =      3.56384  eV     1   --> A_1  G_1 D_1   
     e(  8 -  9) =      5.30814  eV     2   --> E    G_5 D_5   
     e( 10 - 10) =      5.36741  eV     1   --> A_1  G_1 D_1   
     e( 11 - 11) =      5.37779  eV     1   --> B_1  G_3 D_2   
     e( 12 - 12) =      6.33642  eV     1   --> B_2  G_4 D_2'  
     e( 13 - 13) =      6.53025  eV     1   --> A_1  G_1 D_1   
     e( 14 - 15) =      6.95265  eV     2   --> E    G_5 D_5   
     e( 16 - 16) =      7.22756  eV     1   --> A_1  G_1 D_1   

 **************************************************************************

 **************************************************************************

                    xk=(   0.42000,   0.00000,   0.00000  )

     Band symmetry, C_4v (4mm)  point group:

     e(  1 -  1) =    -18.52927  eV     1   --> A_1  G_1 D_1   
     e(  2 -  2) =    -16.82457  eV     1   --> A_1  G_1 D_1   
     e(  3 -  4) =     -5.96900  eV     2   --> E    G_5 D_5   
     e(  5 -  6) =     -2.62552  eV     2   --> E    G_5 D_5   
     e(  7 -  7) =      3.65058  eV     1   --> A_1  G_1 D_1   
     e(  8 -  9) =      5.40283  eV     2   --> E    G_5 D_5   
     e( 10 - 10) =      5.45428  eV     1   --> A_1  G_1 D_1   
     e( 11 - 11) =      5.47320  eV     1   --> B_1  G_3 D_2   
     e( 12 - 12) =      6.43182  eV     1   --> B_2  G_4 D_2'  
     e( 13 - 13) =      6.46808  eV     1   --> A_1  G_1 D_1   
     e( 14 - 15) =      7.04759  eV     2   --> E    G_5 D_5   
     e( 16 - 16) =      7.31433  eV     1   --> A_1  G_1 D_1   

 **************************************************************************

 **************************************************************************

                    xk=(   0.42500,   0.00000,   0.00000  )

     Band symmetry, C_4v (4mm)  point group:

     e(  1 -  1) =    -18.48141  eV     1   --> A_1  G_1 D_1   
     e(  2 -  2) =    -16.88072  eV     1   --> A_1  G_1 D_1   
     e(  3 -  4) =     -5.88036  eV     2   --> E    G_5 D_5   
     e(  5 -  6) =     -2.74286  eV     2   --> E    G_5 D_5   
     e(  7 -  7) =      3.73806  eV     1   --> A_1  G_1 D_1   
     e(  8 -  9) =      5.49865  eV     2   --> E    G_5 D_5   
     e( 10 - 10) =      5.54187  eV     1   --> A_1  G_1 D_1   
     e( 11 - 11) =      5.56975  eV     1   --> B_1  G_3 D_2   
     e( 12 - 12) =      6.40183  eV     1   --> A_1  G_1 D_1   
     e( 13 - 13) =      6.52837  eV     1   --> B_2  G_4 D_2'  
     e( 14 - 15) =      7.14365  eV     2   --> E    G_5 D_5   
     e( 16 - 16) =      7.40210  eV     1   --> A_1  G_1 D_1   

 **************************************************************************

 **************************************************************************

                    xk=(   0.43000,   0.00000,   0.00000  )

     Band symmetry, C_4v (4mm)  point group:

     e(  1 -  1) =    -18.43320  eV     1   --> A_1  G_1 D_1   
     e(  2 -  2) =    -16.93670  eV     1   --> A_1  G_1 D_1   
     e(  3 -  4) =     -5.79080  eV     2   --> E    G_5 D_5   
     e(  5 -  6) =     -2.85928  eV     2   --> E    G_5 D_5   
     e(  7 -  7) =      3.82625  eV     1   --> A_1  G_1 D_1   
     e(  8 -  9) =      5.59559  eV     2   --> E    G_5 D_5   
     e( 10 - 10) =      5.63009  eV     1   --> A_1  G_1 D_1   
     e( 11 - 11) =      5.66744  eV     1   --> B_1  G_3 D_2   
     e( 12 - 12) =      6.33197  eV     1   --> A_1  G_1 D_1   
     e( 13 - 13) =      6.62605  eV     1   --> B_2  G_4 D_2'  
     e( 14 - 15) =      7.24084  eV     2   --> E    G_5 D_5   
     e( 16 - 16) =      7.49075  eV     1   --> A_1  G_1 D_1   

 **************************************************************************

 **************************************************************************

                    xk=(   0.43500,   0.00000,   0.00000  )

     Band symmetry, C_4v (4mm)  point group:

     e(  1 -  1) =    -18.38465  eV     1   --> A_1  G_1 D_1   
     e(  2 -  2) =    -16.99252  eV     1   --> A_1  G_1 D_1   
     e(  3 -  4) =     -5.70036  eV     2   --> E    G_5 D_5   
     e(  5 -  6) =     -2.97476  eV     2   --> E    G_5 D_5   
     e(  7 -  7) =      3.91512  eV     1   --> A_1  G_1 D_1   
     e(  8 -  9) =      5.69365  eV     2   --> E    G_5 D_5   
     e( 10 - 10) =      5.71874  eV     1   --> A_1  G_1 D_1   
     e( 11 - 11) =      5.76627  eV     1   --> B_1  G_3 D_2   
     e( 12 - 12) =      6.25904  eV     1   --> A_1  G_1 D_1   
     e( 13 - 13) =      6.72488  eV     1   --> B_2  G_4 D_2'  
     e( 14 - 15) =      7.33916  eV     2   --> E    G_5 D_5   
     e( 16 - 16) =      7.58015  eV     1   --> A_1  G_1 D_1   

 **************************************************************************

 **************************************************************************

                    xk=(   0.44000,   0.00000,   0.00000  )

     Band symmetry, C_4v (4mm)  point group:

     e(  1 -  1) =    -18.33578  eV     1   --> A_1  G_1 D_1   
     e(  2 -  2) =    -17.04814  eV     1   --> A_1  G_1 D_1   
     e(  3 -  4) =     -5.60904  eV     2   --> E    G_5 D_5   
     e(  5 -  6) =     -3.08928  eV     2   --> E    G_5 D_5   
     e(  7 -  7) =      4.00464  eV     1   --> A_1  G_1 D_1   
     e(  8 -  9) =      5.79284  eV     2   --> E    G_5 D_5   
     e( 10 - 10) =      5.80732  eV     1   --> A_1  G_1 D_1   
     e( 11 - 11) =      5.86625  eV     1   --> B_1  G_3 D_2   
     e( 12 - 12) =      6.18388  eV     1   --> A_1  G_1 D_1   
     e( 13 - 13) =      6.82485  eV     1   --> B_2  G_4 D_2'  
     e( 14 - 15) =      7.43861  eV     2   --> E    G_5 D_5   
     e( 16 - 16) =      7.67009  eV     1   --> A_1  G_1 D_1   

 **************************************************************************

 **************************************************************************

                    xk=(   0.44500,   0.00000,   0.00000  )

     Band symmetry, C_4v (4mm)  point group:

     e(  1 -  1) =    -18.28662  eV     1   --> A_1  G_1 D_1   
     e(  2 -  2) =    -17.10353  eV     1   --> A_1  G_1 D_1   
     e(  3 -  4) =     -5.51691  eV     2   --> E    G_5 D_5   
     e(  5 -  6) =     -3.20278  eV     2   --> E    G_5 D_5   
     e(  7 -  7) =      4.09476  eV     1   --> A_1  G_1 D_1   
     e(  8 -  9) =      5.89316  eV     2   --> E    G_5 D_5   
     e( 10 - 10) =      5.89382  eV     1   --> A_1  G_1 D_1   
     e( 11 - 11) =      5.96737  eV     1   --> B_1  G_3 D_2   
     e( 12 - 12) =      6.10882  eV     1   --> A_1  G_1 D_1   
     e( 13 - 13) =      6.92597  eV     1   --> B_2  G_4 D_2'  
     e( 14 - 15) =      7.53918  eV     2   --> E    G_5 D_5   
     e( 16 - 16) =      7.75988  eV     1   --> A_1  G_1 D_1   

 **************************************************************************

 **************************************************************************

                    xk=(   0.45000,   0.00000,   0.00000  )

     Band symmetry, C_4v (4mm)  point group:

     e(  1 -  1) =    -18.23719  eV     1   --> A_1  G_1 D_1   
     e(  2 -  2) =    -17.15867  eV     1   --> A_1  G_1 D_1   
     e(  3 -  4) =     -5.42399  eV     2   --> E    G_5 D_5   
     e(  5 -  6) =     -3.31523  eV     2   --> E    G_5 D_5   
     e(  7 -  7) =      4.18545  eV     1   --> A_1  G_1 D_1   
     e(  8 -  8) =      5.95935  eV     1   --> A_1  G_1 D_1   
     e(  9 - 10) =      5.99459  eV     2   --> E    G_5 D_5   
     e( 11 - 11) =      6.05304  eV     1   --> A_1  G_1 D_1   
     e( 12 - 12) =      6.06963  eV     1   --> B_1  G_3 D_2   
     e( 13 - 13) =      7.02822  eV     1   --> B_2  G_4 D_2'  
     e( 14 - 15) =      7.64087  eV     2   --> E    G_5 D_5   
     e( 16 - 16) =      7.84438  eV     1   --> A_1  G_1 D_1   

 **************************************************************************

 **************************************************************************

                    xk=(   0.45500,   0.00000,   0.00000  )

     Band symmetry, C_4v (4mm)  point group:

     e(  1 -  1) =    -18.18754  eV     1   --> A_1  G_1 D_1   
     e(  2 -  2) =    -17.21349  eV     1   --> A_1  G_1 D_1   
     e(  3 -  4) =     -5.33037  eV     2   --> E    G_5 D_5   
     e(  5 -  6) =     -3.42653  eV     2   --> E    G_5 D_5   
     e(  7 -  7) =      4.27665  eV     1   --> A_1  G_1 D_1   
     e(  8 -  8) =      5.92006  eV     1   --> A_1  G_1 D_1   
     e(  9 - 10) =      6.09715  eV     2   --> E    G_5 D_5   
     e( 11 - 11) =      6.10067  eV     1   --> A_1  G_1 D_1   
     e( 12 - 12) =      6.17303  eV     1   --> B_1  G_3 D_2   
     e( 13 - 13) =      7.13162  eV     1   --> B_2  G_4 D_2'  
     e( 14 - 15) =      7.74364  eV     2   --> E    G_5 D_5   
     e( 16 - 16) =      7.83399  eV     1   --> A_1  G_1 D_1   

 **************************************************************************

 **************************************************************************

                    xk=(   0.46000,   0.00000,   0.00000  )

     Band symmetry, C_4v (4mm)  point group:

     e(  1 -  1) =    -18.13771  eV     1   --> A_1  G_1 D_1   
     e(  2 -  2) =    -17.26796  eV     1   --> A_1  G_1 D_1   
     e(  3 -  4) =     -5.23612  eV     2   --> E    G_5 D_5   
     e(  5 -  6) =     -3.53660  eV     2   --> E    G_5 D_5   
     e(  7 -  7) =      4.36832  eV     1   --> A_1  G_1 D_1   
     e(  8 -  8) =      5.84039  eV     1   --> A_1  G_1 D_1   
     e(  9 -  9) =      6.18753  eV     1   --> A_1  G_1 D_1   
     e( 10 - 11) =      6.20082  eV     2   --> E    G_5 D_5   
     e( 12 - 12) =      6.27757  eV     1   --> B_1  G_3 D_2   
     e( 13 - 13) =      7.23616  eV     1   --> B_2  G_4 D_2'  
     e( 14 - 14) =      7.74037  eV     1   --> A_1  G_1 D_1   
     e( 15 - 16) =      7.84731  eV     2   --> E    G_5 D_5   

 **************************************************************************

 **************************************************************************

                    xk=(   0.46500,   0.00000,   0.00000  )

     Band symmetry, C_4v (4mm)  point group:

     e(  1 -  1) =    -18.08778  eV     1   --> A_1  G_1 D_1   
     e(  2 -  2) =    -17.32198  eV     1   --> A_1  G_1 D_1   
     e(  3 -  4) =     -5.14141  eV     2   --> E    G_5 D_5   
     e(  5 -  6) =     -3.64528  eV     2   --> E    G_5 D_5   
     e(  7 -  7) =      4.46038  eV     1   --> A_1  G_1 D_1   
     e(  8 -  8) =      5.75499  eV     1   --> A_1  G_1 D_1   
     e(  9 -  9) =      6.27919  eV     1   --> A_1  G_1 D_1   
     e( 10 - 11) =      6.30562  eV     2   --> E    G_5 D_5   
     e( 12 - 12) =      6.38326  eV     1   --> B_1  G_3 D_2   
     e( 13 - 13) =      7.34184  eV     1   --> B_2  G_4 D_2'  
     e( 14 - 14) =      7.64208  eV     1   --> A_1  G_1 D_1   
     e( 15 - 16) =      7.88925  eV     2   --> E    G_5 D_5   

 **************************************************************************

 **************************************************************************

                    xk=(   0.47000,   0.00000,   0.00000  )

     Band symmetry, C_4v (4mm)  point group:

     e(  1 -  1) =    -18.03789  eV     1   --> A_1  G_1 D_1   
     e(  2 -  2) =    -17.37542  eV     1   --> A_1  G_1 D_1   
     e(  3 -  4) =     -5.04649  eV     2   --> E    G_5 D_5   
     e(  5 -  6) =     -3.75232  eV     2   --> E    G_5 D_5   
     e(  7 -  7) =      4.55275  eV     1   --> A_1  G_1 D_1   
     e(  8 -  8) =      5.66723  eV     1   --> A_1  G_1 D_1   
     e(  9 -  9) =      6.37251  eV     1   --> A_1  G_1 D_1   
     e( 10 - 11) =      6.41153  eV     2   --> E    G_5 D_5   
     e( 12 - 12) =      6.49009  eV     1   --> B_1  G_3 D_2   
     e( 13 - 13) =      7.44866  eV     1   --> B_2  G_4 D_2'  
     e( 14 - 14) =      7.54317  eV     1   --> A_1  G_1 D_1   
     e( 15 - 16) =      7.76992  eV     2   --> E    G_5 D_5   

 **************************************************************************

 **************************************************************************

                    xk=(   0.47500,   0.00000,   0.00000  )

     Band symmetry, C_4v (4mm)  point group:

     e(  1 -  1) =    -17.98826  eV     1   --> A_1  G_1 D_1   
     e(  2 -  2) =    -17.42805  eV     1   --> A_1  G_1 D_1   
     e(  3 -  4) =     -4.95176  eV     2   --> E    G_5 D_5   
     e(  5 -  6) =     -3.85729  eV     2   --> E    G_5 D_5   
     e(  7 -  7) =      4.64534  eV     1   --> A_1  G_1 D_1   
     e(  8 -  8) =      5.57802  eV     1   --> A_1  G_1 D_1   
     e(  9 -  9) =      6.46679  eV     1   --> A_1  G_1 D_1   
     e( 10 - 11) =      6.51855  eV     2   --> E    G_5 D_5   
     e( 12 - 12) =      6.59806  eV     1   --> B_1  G_3 D_2   
     e( 13 - 13) =      7.44424  eV     1   --> A_1  G_1 D_1   
     e( 14 - 14) =      7.55662  eV     1   --> B_2  G_4 D_2'  
     e( 15 - 16) =      7.65075  eV     2   --> E    G_5 D_5   

 **************************************************************************

 **************************************************************************

                    xk=(   0.48000,   0.00000,   0.00000  )

     Band symmetry, C_4v (4mm)  point group:

     e(  1 -  1) =    -17.93929  eV     1   --> A_1  G_1 D_1   
     e(  2 -  2) =    -17.47950  eV     1   --> A_1  G_1 D_1   
     e(  3 -  4) =     -4.85801  eV     2   --> E    G_5 D_5   
     e(  5 -  6) =     -3.95943  eV     2   --> E    G_5 D_5   
     e(  7 -  7) =      4.73798  eV     1   --> A_1  G_1 D_1   
     e(  8 -  8) =      5.48785  eV     1   --> A_1  G_1 D_1   
     e(  9 -  9) =      6.56173  eV     1   --> A_1  G_1 D_1   
     e( 10 - 11) =      6.62668  eV     2   --> E    G_5 D_5   
     e( 12 - 12) =      6.70718  eV     1   --> B_1  G_3 D_2   
     e( 13 - 13) =      7.34553  eV     1   --> A_1  G_1 D_1   
     e( 14 - 15) =      7.53263  eV     2   --> E    G_5 D_5   
     e( 16 - 16) =      7.62127  eV     1   --> B_1  G_3 D_2   

 **************************************************************************

 **************************************************************************

                    xk=(   0.48500,   0.00000,   0.00000  )

     Band symmetry, C_4v (4mm)  point group:

     e(  1 -  1) =    -17.89179  eV     1   --> A_1  G_1 D_1   
     e(  2 -  2) =    -17.52892  eV     1   --> A_1  G_1 D_1   
     e(  3 -  4) =     -4.76684  eV     2   --> E    G_5 D_5   
     e(  5 -  6) =     -4.05713  eV     2   --> E    G_5 D_5   
     e(  7 -  7) =      4.83041  eV     1   --> A_1  G_1 D_1   
     e(  8 -  8) =      5.39718  eV     1   --> A_1  G_1 D_1   
     e(  9 -  9) =      6.65712  eV     1   --> A_1  G_1 D_1   
     e( 10 - 11) =      6.73590  eV     2   --> E    G_5 D_5   
     e( 12 - 12) =      6.81743  eV     1   --> B_1  G_3 D_2   
     e( 13 - 13) =      7.24723  eV     1   --> A_1  G_1 D_1   
     e( 14 - 15) =      7.41562  eV     2   --> E    G_5 D_5   
     e( 16 - 16) =      7.50302  eV     1   --> B_1  G_3 D_2   

 **************************************************************************

 **************************************************************************

                    xk=(   0.49000,   0.00000,   0.00000  )

     Band symmetry, C_4v (4mm)  point group:

     e(  1 -  1) =    -17.84768  eV     1   --> A_1  G_1 D_1   
     e(  2 -  2) =    -17.57441  eV     1   --> A_1  G_1 D_1   
     e(  3 -  4) =     -4.68204  eV     2   --> E    G_5 D_5   
     e(  5 -  6) =     -4.14660  eV     2   --> E    G_5 D_5   
     e(  7 -  7) =      4.92198  eV     1   --> A_1  G_1 D_1   
     e(  8 -  8) =      5.30678  eV     1   --> A_1  G_1 D_1   
     e(  9 -  9) =      6.75254  eV     1   --> A_1  G_1 D_1   
     e( 10 - 11) =      6.84617  eV     2   --> E    G_5 D_5   
     e( 12 - 12) =      6.92882  eV     1   --> B_1  G_3 D_2   
     e( 13 - 13) =      7.14974  eV     1   --> A_1  G_1 D_1   
     e( 14 - 15) =      7.29978  eV     2   --> E    G_5 D_5   
     e( 16 - 16) =      7.38592  eV     1   --> B_1  G_3 D_2   

 **************************************************************************

 **************************************************************************

                    xk=(   0.49500,   0.00000,   0.00000  )

     Band symmetry, C_4v (4mm)  point group:

     e(  1 -  1) =    -17.81203  eV     1   --> A_1  G_1 D_1   
     e(  2 -  2) =    -17.61088  eV     1   --> A_1  G_1 D_1   
     e(  3 -  4) =     -4.61351  eV     2   --> E    G_5 D_5   
     e(  5 -  6) =     -4.21793  eV     2   --> E    G_5 D_5   
     e(  7 -  7) =      5.01007  eV     1   --> A_1  G_1 D_1   
     e(  8 -  8) =      5.21937  eV     1   --> A_1  G_1 D_1   
     e(  9 -  9) =      6.84643  eV     1   --> A_1  G_1 D_1   
     e( 10 - 11) =      6.95728  eV     2   --> E    G_5 D_5   
     e( 12 - 12) =      7.04132  eV     1   --> B_1  G_3 D_2   
     e( 13 - 13) =      7.05461  eV     1   --> A_1  G_1 D_1   
     e( 14 - 15) =      7.18533  eV     2   --> E    G_5 D_5   
     e( 16 - 16) =      7.26999  eV     1   --> B_1  G_3 D_2   

 **************************************************************************

 **************************************************************************

                    xk=(   0.50000,   0.00000,   0.00000  )

     Band symmetry, C_4v (4mm)  point group:

     e(  1 -  1) =    -17.79682  eV     1   --> A_1  G_1 D_1   
     e(  2 -  2) =    -17.62637  eV     1   --> A_1  G_1 D_1   
     e(  3 -  4) =     -4.58432  eV     2   --> E    G_5 D_5   
     e(  5 -  6) =     -4.24805  eV     2   --> E    G_5 D_5   
     e(  7 -  7) =      5.06742  eV     1   --> A_1  G_1 D_1   
     e(  8 -  8) =      5.16224  eV     1   --> A_1  G_1 D_1   
     e(  9 -  9) =      6.91436  eV     1   --> A_1  G_1 D_1   
     e( 10 - 10) =      6.98626  eV     1   --> A_1  G_1 D_1   
     e( 11 - 12) =      7.05704  eV     2   --> E    G_5 D_5   
     e( 13 - 14) =      7.08446  eV     2   --> E    G_5 D_5   
     e( 15 - 15) =      7.15093  eV     1   --> B_1  G_3 D_2   
     e( 16 - 16) =      7.15924  eV     1   --> B_1  G_3 D_2   

 **************************************************************************
 
     BANDS        :     16.94s CPU     15.21s WALL

 
   This run was terminated on:  20:45:56  24Jun2021            

=------------------------------------------------------------------------------=
   JOB DONE.
=------------------------------------------------------------------------------=
