
     Program PWSCF v.6.7MaX starts on 24Jun2021 at 20:44:23 

     This program is part of the open-source Quantum ESPRESSO suite
     for quantum simulation of materials; please cite
         "P. Giannozzi et al., J. Phys.:Condens. Matter 21 395502 (2009);
         "P. Giannozzi et al., J. Phys.:Condens. Matter 29 465901 (2017);
          URL http://www.quantum-espresso.org", 
     in publications or presentations arising from this work. More details at
     http://www.quantum-espresso.org/quote

     Parallel version (MPI & OpenMP), running on      56 processor cores
     Number of MPI processes:                28
     Threads/MPI process:                     2

     MPI processes distributed on     1 nodes
     K-points division:     npool     =      28
     Waiting for input...
     Reading input from standard input
Warning: card &IONS ignored
Warning: card     ION_DYNAMICS = "BFGS" ignored
Warning: card / ignored

     Current dimensions of program PWSCF are:
     Max number of different atomic species (ntypx) = 10
     Max number of k-points (npk) =  40000
     Max angular momentum in pseudopotentials (lmaxx) =  3
     Message from routine iosys:
     wrong startingpot: use default (2)

     Atomic positions and unit cell read from directory:
     ./outdir/carbyne.save/
     Atomic positions from file used, from input discarded
 
     file C.pbe-n-kjpaw_psl.1.0.0.UPF: wavefunction(s)  2S 2P renormalized

     Subspace diagonalization in iterative solution of the eigenvalue problem:
     a serial algorithm will be used

     Message from routine setup:
     using ibrav=0 with symmetry is DISCOURAGED, use correct ibrav instead
 
     G-vector sticks info
     --------------------
     sticks:   dense  smooth     PW     G-vecs:    dense   smooth      PW
     Sum        2927    1445    425               233967    82581   13359
 


     bravais-lattice index     =            0
     lattice parameter (alat)  =       4.8482  a.u.
     unit-cell volume          =    1731.3136 (a.u.)^3
     number of atoms/cell      =            2
     number of atomic types    =            1
     number of electrons       =         8.00
     number of Kohn-Sham states=           16
     kinetic-energy cutoff     =      50.0000  Ry
     charge density cutoff     =     400.0000  Ry
     Exchange-correlation= SLA  PW   PBX  PBC
                           (   1   4   3   4   0   0   0)

     celldm(1)=   4.848172  celldm(2)=   0.000000  celldm(3)=   0.000000
     celldm(4)=   0.000000  celldm(5)=   0.000000  celldm(6)=   0.000000

     crystal axes: (cart. coord. in units of alat)
               a(1) = (   1.000000   0.000000   0.000000 )  
               a(2) = (   0.000000   3.897812   0.000000 )  
               a(3) = (   0.000000   0.000000   3.897812 )  

     reciprocal axes: (cart. coord. in units 2 pi/alat)
               b(1) = (  1.000000  0.000000  0.000000 )  
               b(2) = (  0.000000  0.256554  0.000000 )  
               b(3) = (  0.000000  0.000000  0.256554 )  


     PseudoPot. # 1 for C  read from file:
     ./pseudo/C.pbe-n-kjpaw_psl.1.0.0.UPF
     MD5 check sum: 6fec8efd722f5d988670a8dc528584a2
     Pseudo is Projector augmented-wave + core cor, Zval =  4.0
     Generated using "atomic" code by A. Dal Corso  v.5.1.2
     Shape of augmentation charge: PSQ
     Using radial grid of 1073 points,  4 beta functions with: 
                l(1) =   0
                l(2) =   0
                l(3) =   1
                l(4) =   1
     Q(r) pseudized with 0 coefficients 


     atomic species   valence    mass     pseudopotential
        C              4.00    12.01070     C ( 1.00)

      8 Sym. Ops. (no inversion) found


                                    s                        frac. trans.

      isym =  1     identity                                     

 cryst.   s( 1) = (     1          0          0      )
                  (     0          1          0      )
                  (     0          0          1      )

 cart.    s( 1) = (  1.0000000  0.0000000  0.0000000 )
                  (  0.0000000  1.0000000  0.0000000 )
                  (  0.0000000  0.0000000  1.0000000 )


      isym =  2     180 deg rotation - cart. axis [1,0,0]        

 cryst.   s( 2) = (     1          0          0      )
                  (     0         -1          0      )
                  (     0          0         -1      )

 cart.    s( 2) = (  1.0000000  0.0000000  0.0000000 )
                  (  0.0000000 -1.0000000  0.0000000 )
                  (  0.0000000  0.0000000 -1.0000000 )


      isym =  3      90 deg rotation - cart. axis [-1,0,0]       

 cryst.   s( 3) = (     1          0          0      )
                  (     0          0         -1      )
                  (     0          1          0      )

 cart.    s( 3) = (  1.0000000  0.0000000  0.0000000 )
                  (  0.0000000  0.0000000  1.0000000 )
                  (  0.0000000 -1.0000000  0.0000000 )


      isym =  4      90 deg rotation - cart. axis [1,0,0]        

 cryst.   s( 4) = (     1          0          0      )
                  (     0          0          1      )
                  (     0         -1          0      )

 cart.    s( 4) = (  1.0000000  0.0000000  0.0000000 )
                  (  0.0000000  0.0000000 -1.0000000 )
                  (  0.0000000  1.0000000  0.0000000 )


      isym =  5     inv. 180 deg rotation - cart. axis [0,0,1]   

 cryst.   s( 5) = (     1          0          0      )
                  (     0          1          0      )
                  (     0          0         -1      )

 cart.    s( 5) = (  1.0000000  0.0000000  0.0000000 )
                  (  0.0000000  1.0000000  0.0000000 )
                  (  0.0000000  0.0000000 -1.0000000 )


      isym =  6     inv. 180 deg rotation - cart. axis [0,1,0]   

 cryst.   s( 6) = (     1          0          0      )
                  (     0         -1          0      )
                  (     0          0          1      )

 cart.    s( 6) = (  1.0000000  0.0000000  0.0000000 )
                  (  0.0000000 -1.0000000  0.0000000 )
                  (  0.0000000  0.0000000  1.0000000 )


      isym =  7     inv. 180 deg rotation - cart. axis [0,1,1]   

 cryst.   s( 7) = (     1          0          0      )
                  (     0          0         -1      )
                  (     0         -1          0      )

 cart.    s( 7) = (  1.0000000  0.0000000  0.0000000 )
                  (  0.0000000  0.0000000 -1.0000000 )
                  (  0.0000000 -1.0000000  0.0000000 )


      isym =  8     inv. 180 deg rotation - cart. axis [0,1,-1]  

 cryst.   s( 8) = (     1          0          0      )
                  (     0          0          1      )
                  (     0          1          0      )

 cart.    s( 8) = (  1.0000000  0.0000000  0.0000000 )
                  (  0.0000000  0.0000000  1.0000000 )
                  (  0.0000000  1.0000000  0.0000000 )


   Cartesian axes

     site n.     atom                  positions (alat units)
         1           C   tau(   1) = (   0.0001503   1.9489059   1.9489059  )
         2           C   tau(   2) = (   0.4928235   1.9489059   1.9489059  )

   Crystallographic axes

     site n.     atom                  positions (cryst. coord.)
         1           C   tau(   1) = (  0.0001503  0.5000000  0.5000000  )
         2           C   tau(   2) = (  0.4928235  0.5000000  0.5000000  )

     number of k points=   101
                       cart. coord. in units 2pi/alat
        k(    1) = (   0.0000000   0.0000000   0.0000000), wk =   0.0198020
        k(    2) = (   0.0050000   0.0000000   0.0000000), wk =   0.0198020
        k(    3) = (   0.0100000   0.0000000   0.0000000), wk =   0.0198020
        k(    4) = (   0.0150000   0.0000000   0.0000000), wk =   0.0198020
        k(    5) = (   0.0200000   0.0000000   0.0000000), wk =   0.0198020
        k(    6) = (   0.0250000   0.0000000   0.0000000), wk =   0.0198020
        k(    7) = (   0.0300000   0.0000000   0.0000000), wk =   0.0198020
        k(    8) = (   0.0350000   0.0000000   0.0000000), wk =   0.0198020
        k(    9) = (   0.0400000   0.0000000   0.0000000), wk =   0.0198020
        k(   10) = (   0.0450000   0.0000000   0.0000000), wk =   0.0198020
        k(   11) = (   0.0500000   0.0000000   0.0000000), wk =   0.0198020
        k(   12) = (   0.0550000   0.0000000   0.0000000), wk =   0.0198020
        k(   13) = (   0.0600000   0.0000000   0.0000000), wk =   0.0198020
        k(   14) = (   0.0650000   0.0000000   0.0000000), wk =   0.0198020
        k(   15) = (   0.0700000   0.0000000   0.0000000), wk =   0.0198020
        k(   16) = (   0.0750000   0.0000000   0.0000000), wk =   0.0198020
        k(   17) = (   0.0800000   0.0000000   0.0000000), wk =   0.0198020
        k(   18) = (   0.0850000   0.0000000   0.0000000), wk =   0.0198020
        k(   19) = (   0.0900000   0.0000000   0.0000000), wk =   0.0198020
        k(   20) = (   0.0950000   0.0000000   0.0000000), wk =   0.0198020
        k(   21) = (   0.1000000   0.0000000   0.0000000), wk =   0.0198020
        k(   22) = (   0.1050000   0.0000000   0.0000000), wk =   0.0198020
        k(   23) = (   0.1100000   0.0000000   0.0000000), wk =   0.0198020
        k(   24) = (   0.1150000   0.0000000   0.0000000), wk =   0.0198020
        k(   25) = (   0.1200000   0.0000000   0.0000000), wk =   0.0198020
        k(   26) = (   0.1250000   0.0000000   0.0000000), wk =   0.0198020
        k(   27) = (   0.1300000   0.0000000   0.0000000), wk =   0.0198020
        k(   28) = (   0.1350000   0.0000000   0.0000000), wk =   0.0198020
        k(   29) = (   0.1400000   0.0000000   0.0000000), wk =   0.0198020
        k(   30) = (   0.1450000   0.0000000   0.0000000), wk =   0.0198020
        k(   31) = (   0.1500000   0.0000000   0.0000000), wk =   0.0198020
        k(   32) = (   0.1550000   0.0000000   0.0000000), wk =   0.0198020
        k(   33) = (   0.1600000   0.0000000   0.0000000), wk =   0.0198020
        k(   34) = (   0.1650000   0.0000000   0.0000000), wk =   0.0198020
        k(   35) = (   0.1700000   0.0000000   0.0000000), wk =   0.0198020
        k(   36) = (   0.1750000   0.0000000   0.0000000), wk =   0.0198020
        k(   37) = (   0.1800000   0.0000000   0.0000000), wk =   0.0198020
        k(   38) = (   0.1850000   0.0000000   0.0000000), wk =   0.0198020
        k(   39) = (   0.1900000   0.0000000   0.0000000), wk =   0.0198020
        k(   40) = (   0.1950000   0.0000000   0.0000000), wk =   0.0198020
        k(   41) = (   0.2000000   0.0000000   0.0000000), wk =   0.0198020
        k(   42) = (   0.2050000   0.0000000   0.0000000), wk =   0.0198020
        k(   43) = (   0.2100000   0.0000000   0.0000000), wk =   0.0198020
        k(   44) = (   0.2150000   0.0000000   0.0000000), wk =   0.0198020
        k(   45) = (   0.2200000   0.0000000   0.0000000), wk =   0.0198020
        k(   46) = (   0.2250000   0.0000000   0.0000000), wk =   0.0198020
        k(   47) = (   0.2300000   0.0000000   0.0000000), wk =   0.0198020
        k(   48) = (   0.2350000   0.0000000   0.0000000), wk =   0.0198020
        k(   49) = (   0.2400000   0.0000000   0.0000000), wk =   0.0198020
        k(   50) = (   0.2450000   0.0000000   0.0000000), wk =   0.0198020
        k(   51) = (   0.2500000   0.0000000   0.0000000), wk =   0.0198020
        k(   52) = (   0.2550000   0.0000000   0.0000000), wk =   0.0198020
        k(   53) = (   0.2600000   0.0000000   0.0000000), wk =   0.0198020
        k(   54) = (   0.2650000   0.0000000   0.0000000), wk =   0.0198020
        k(   55) = (   0.2700000   0.0000000   0.0000000), wk =   0.0198020
        k(   56) = (   0.2750000   0.0000000   0.0000000), wk =   0.0198020
        k(   57) = (   0.2800000   0.0000000   0.0000000), wk =   0.0198020
        k(   58) = (   0.2850000   0.0000000   0.0000000), wk =   0.0198020
        k(   59) = (   0.2900000   0.0000000   0.0000000), wk =   0.0198020
        k(   60) = (   0.2950000   0.0000000   0.0000000), wk =   0.0198020
        k(   61) = (   0.3000000   0.0000000   0.0000000), wk =   0.0198020
        k(   62) = (   0.3050000   0.0000000   0.0000000), wk =   0.0198020
        k(   63) = (   0.3100000   0.0000000   0.0000000), wk =   0.0198020
        k(   64) = (   0.3150000   0.0000000   0.0000000), wk =   0.0198020
        k(   65) = (   0.3200000   0.0000000   0.0000000), wk =   0.0198020
        k(   66) = (   0.3250000   0.0000000   0.0000000), wk =   0.0198020
        k(   67) = (   0.3300000   0.0000000   0.0000000), wk =   0.0198020
        k(   68) = (   0.3350000   0.0000000   0.0000000), wk =   0.0198020
        k(   69) = (   0.3400000   0.0000000   0.0000000), wk =   0.0198020
        k(   70) = (   0.3450000   0.0000000   0.0000000), wk =   0.0198020
        k(   71) = (   0.3500000   0.0000000   0.0000000), wk =   0.0198020
        k(   72) = (   0.3550000   0.0000000   0.0000000), wk =   0.0198020
        k(   73) = (   0.3600000   0.0000000   0.0000000), wk =   0.0198020
        k(   74) = (   0.3650000   0.0000000   0.0000000), wk =   0.0198020
        k(   75) = (   0.3700000   0.0000000   0.0000000), wk =   0.0198020
        k(   76) = (   0.3750000   0.0000000   0.0000000), wk =   0.0198020
        k(   77) = (   0.3800000   0.0000000   0.0000000), wk =   0.0198020
        k(   78) = (   0.3850000   0.0000000   0.0000000), wk =   0.0198020
        k(   79) = (   0.3900000   0.0000000   0.0000000), wk =   0.0198020
        k(   80) = (   0.3950000   0.0000000   0.0000000), wk =   0.0198020
        k(   81) = (   0.4000000   0.0000000   0.0000000), wk =   0.0198020
        k(   82) = (   0.4050000   0.0000000   0.0000000), wk =   0.0198020
        k(   83) = (   0.4100000   0.0000000   0.0000000), wk =   0.0198020
        k(   84) = (   0.4150000   0.0000000   0.0000000), wk =   0.0198020
        k(   85) = (   0.4200000   0.0000000   0.0000000), wk =   0.0198020
        k(   86) = (   0.4250000   0.0000000   0.0000000), wk =   0.0198020
        k(   87) = (   0.4300000   0.0000000   0.0000000), wk =   0.0198020
        k(   88) = (   0.4350000   0.0000000   0.0000000), wk =   0.0198020
        k(   89) = (   0.4400000   0.0000000   0.0000000), wk =   0.0198020
        k(   90) = (   0.4450000   0.0000000   0.0000000), wk =   0.0198020
        k(   91) = (   0.4500000   0.0000000   0.0000000), wk =   0.0198020
        k(   92) = (   0.4550000   0.0000000   0.0000000), wk =   0.0198020
        k(   93) = (   0.4600000   0.0000000   0.0000000), wk =   0.0198020
        k(   94) = (   0.4650000   0.0000000   0.0000000), wk =   0.0198020
        k(   95) = (   0.4700000   0.0000000   0.0000000), wk =   0.0198020
        k(   96) = (   0.4750000   0.0000000   0.0000000), wk =   0.0198020
        k(   97) = (   0.4800000   0.0000000   0.0000000), wk =   0.0198020
        k(   98) = (   0.4850000   0.0000000   0.0000000), wk =   0.0198020
        k(   99) = (   0.4900000   0.0000000   0.0000000), wk =   0.0198020
        k(  100) = (   0.4950000   0.0000000   0.0000000), wk =   0.0198020
        k(  101) = (   0.5000000   0.0000000   0.0000000), wk =   0.0198020

                       cryst. coord.
        k(    1) = (   0.0000000   0.0000000   0.0000000), wk =   0.0198020
        k(    2) = (   0.0050000   0.0000000   0.0000000), wk =   0.0198020
        k(    3) = (   0.0100000   0.0000000   0.0000000), wk =   0.0198020
        k(    4) = (   0.0150000   0.0000000   0.0000000), wk =   0.0198020
        k(    5) = (   0.0200000   0.0000000   0.0000000), wk =   0.0198020
        k(    6) = (   0.0250000   0.0000000   0.0000000), wk =   0.0198020
        k(    7) = (   0.0300000   0.0000000   0.0000000), wk =   0.0198020
        k(    8) = (   0.0350000   0.0000000   0.0000000), wk =   0.0198020
        k(    9) = (   0.0400000   0.0000000   0.0000000), wk =   0.0198020
        k(   10) = (   0.0450000   0.0000000   0.0000000), wk =   0.0198020
        k(   11) = (   0.0500000   0.0000000   0.0000000), wk =   0.0198020
        k(   12) = (   0.0550000   0.0000000   0.0000000), wk =   0.0198020
        k(   13) = (   0.0600000   0.0000000   0.0000000), wk =   0.0198020
        k(   14) = (   0.0650000   0.0000000   0.0000000), wk =   0.0198020
        k(   15) = (   0.0700000   0.0000000   0.0000000), wk =   0.0198020
        k(   16) = (   0.0750000   0.0000000   0.0000000), wk =   0.0198020
        k(   17) = (   0.0800000   0.0000000   0.0000000), wk =   0.0198020
        k(   18) = (   0.0850000   0.0000000   0.0000000), wk =   0.0198020
        k(   19) = (   0.0900000   0.0000000   0.0000000), wk =   0.0198020
        k(   20) = (   0.0950000   0.0000000   0.0000000), wk =   0.0198020
        k(   21) = (   0.1000000   0.0000000   0.0000000), wk =   0.0198020
        k(   22) = (   0.1050000   0.0000000   0.0000000), wk =   0.0198020
        k(   23) = (   0.1100000   0.0000000   0.0000000), wk =   0.0198020
        k(   24) = (   0.1150000   0.0000000   0.0000000), wk =   0.0198020
        k(   25) = (   0.1200000   0.0000000   0.0000000), wk =   0.0198020
        k(   26) = (   0.1250000   0.0000000   0.0000000), wk =   0.0198020
        k(   27) = (   0.1300000   0.0000000   0.0000000), wk =   0.0198020
        k(   28) = (   0.1350000   0.0000000   0.0000000), wk =   0.0198020
        k(   29) = (   0.1400000   0.0000000   0.0000000), wk =   0.0198020
        k(   30) = (   0.1450000   0.0000000   0.0000000), wk =   0.0198020
        k(   31) = (   0.1500000   0.0000000   0.0000000), wk =   0.0198020
        k(   32) = (   0.1550000   0.0000000   0.0000000), wk =   0.0198020
        k(   33) = (   0.1600000   0.0000000   0.0000000), wk =   0.0198020
        k(   34) = (   0.1650000   0.0000000   0.0000000), wk =   0.0198020
        k(   35) = (   0.1700000   0.0000000   0.0000000), wk =   0.0198020
        k(   36) = (   0.1750000   0.0000000   0.0000000), wk =   0.0198020
        k(   37) = (   0.1800000   0.0000000   0.0000000), wk =   0.0198020
        k(   38) = (   0.1850000   0.0000000   0.0000000), wk =   0.0198020
        k(   39) = (   0.1900000   0.0000000   0.0000000), wk =   0.0198020
        k(   40) = (   0.1950000   0.0000000   0.0000000), wk =   0.0198020
        k(   41) = (   0.2000000   0.0000000   0.0000000), wk =   0.0198020
        k(   42) = (   0.2050000   0.0000000   0.0000000), wk =   0.0198020
        k(   43) = (   0.2100000   0.0000000   0.0000000), wk =   0.0198020
        k(   44) = (   0.2150000   0.0000000   0.0000000), wk =   0.0198020
        k(   45) = (   0.2200000   0.0000000   0.0000000), wk =   0.0198020
        k(   46) = (   0.2250000   0.0000000   0.0000000), wk =   0.0198020
        k(   47) = (   0.2300000   0.0000000   0.0000000), wk =   0.0198020
        k(   48) = (   0.2350000   0.0000000   0.0000000), wk =   0.0198020
        k(   49) = (   0.2400000   0.0000000   0.0000000), wk =   0.0198020
        k(   50) = (   0.2450000   0.0000000   0.0000000), wk =   0.0198020
        k(   51) = (   0.2500000   0.0000000   0.0000000), wk =   0.0198020
        k(   52) = (   0.2550000   0.0000000   0.0000000), wk =   0.0198020
        k(   53) = (   0.2600000   0.0000000   0.0000000), wk =   0.0198020
        k(   54) = (   0.2650000   0.0000000   0.0000000), wk =   0.0198020
        k(   55) = (   0.2700000   0.0000000   0.0000000), wk =   0.0198020
        k(   56) = (   0.2750000   0.0000000   0.0000000), wk =   0.0198020
        k(   57) = (   0.2800000   0.0000000   0.0000000), wk =   0.0198020
        k(   58) = (   0.2850000   0.0000000   0.0000000), wk =   0.0198020
        k(   59) = (   0.2900000   0.0000000   0.0000000), wk =   0.0198020
        k(   60) = (   0.2950000   0.0000000   0.0000000), wk =   0.0198020
        k(   61) = (   0.3000000   0.0000000   0.0000000), wk =   0.0198020
        k(   62) = (   0.3050000   0.0000000   0.0000000), wk =   0.0198020
        k(   63) = (   0.3100000   0.0000000   0.0000000), wk =   0.0198020
        k(   64) = (   0.3150000   0.0000000   0.0000000), wk =   0.0198020
        k(   65) = (   0.3200000   0.0000000   0.0000000), wk =   0.0198020
        k(   66) = (   0.3250000   0.0000000   0.0000000), wk =   0.0198020
        k(   67) = (   0.3300000   0.0000000   0.0000000), wk =   0.0198020
        k(   68) = (   0.3350000   0.0000000   0.0000000), wk =   0.0198020
        k(   69) = (   0.3400000   0.0000000   0.0000000), wk =   0.0198020
        k(   70) = (   0.3450000   0.0000000   0.0000000), wk =   0.0198020
        k(   71) = (   0.3500000   0.0000000   0.0000000), wk =   0.0198020
        k(   72) = (   0.3550000   0.0000000   0.0000000), wk =   0.0198020
        k(   73) = (   0.3600000   0.0000000   0.0000000), wk =   0.0198020
        k(   74) = (   0.3650000   0.0000000   0.0000000), wk =   0.0198020
        k(   75) = (   0.3700000   0.0000000   0.0000000), wk =   0.0198020
        k(   76) = (   0.3750000   0.0000000   0.0000000), wk =   0.0198020
        k(   77) = (   0.3800000   0.0000000   0.0000000), wk =   0.0198020
        k(   78) = (   0.3850000   0.0000000   0.0000000), wk =   0.0198020
        k(   79) = (   0.3900000   0.0000000   0.0000000), wk =   0.0198020
        k(   80) = (   0.3950000   0.0000000   0.0000000), wk =   0.0198020
        k(   81) = (   0.4000000   0.0000000   0.0000000), wk =   0.0198020
        k(   82) = (   0.4050000   0.0000000   0.0000000), wk =   0.0198020
        k(   83) = (   0.4100000   0.0000000   0.0000000), wk =   0.0198020
        k(   84) = (   0.4150000   0.0000000   0.0000000), wk =   0.0198020
        k(   85) = (   0.4200000   0.0000000   0.0000000), wk =   0.0198020
        k(   86) = (   0.4250000   0.0000000   0.0000000), wk =   0.0198020
        k(   87) = (   0.4300000   0.0000000   0.0000000), wk =   0.0198020
        k(   88) = (   0.4350000   0.0000000   0.0000000), wk =   0.0198020
        k(   89) = (   0.4400000   0.0000000   0.0000000), wk =   0.0198020
        k(   90) = (   0.4450000   0.0000000   0.0000000), wk =   0.0198020
        k(   91) = (   0.4500000   0.0000000   0.0000000), wk =   0.0198020
        k(   92) = (   0.4550000   0.0000000   0.0000000), wk =   0.0198020
        k(   93) = (   0.4600000   0.0000000   0.0000000), wk =   0.0198020
        k(   94) = (   0.4650000   0.0000000   0.0000000), wk =   0.0198020
        k(   95) = (   0.4700000   0.0000000   0.0000000), wk =   0.0198020
        k(   96) = (   0.4750000   0.0000000   0.0000000), wk =   0.0198020
        k(   97) = (   0.4800000   0.0000000   0.0000000), wk =   0.0198020
        k(   98) = (   0.4850000   0.0000000   0.0000000), wk =   0.0198020
        k(   99) = (   0.4900000   0.0000000   0.0000000), wk =   0.0198020
        k(  100) = (   0.4950000   0.0000000   0.0000000), wk =   0.0198020
        k(  101) = (   0.5000000   0.0000000   0.0000000), wk =   0.0198020

     Dense  grid:   233967 G-vectors     FFT dimensions: (  32, 125, 125)

     Smooth grid:    82581 G-vectors     FFT dimensions: (  24,  90,  90)

     Dynamical RAM for                 wfc:       2.52 MB

     Dynamical RAM for     wfc (w. buffer):       2.52 MB

     Dynamical RAM for           str. fact:       3.57 MB

     Dynamical RAM for           local pot:       0.00 MB

     Dynamical RAM for          nlocal pot:       2.52 MB

     Dynamical RAM for                qrad:       0.46 MB

     Dynamical RAM for          rho,v,vnew:      22.15 MB

     Dynamical RAM for           G-vectors:      14.02 MB

     Dynamical RAM for          h,s,v(r/c):       0.05 MB

     Dynamical RAM for          <psi|beta>:       0.00 MB

     Dynamical RAM for                 psi:       5.05 MB

     Dynamical RAM for                hpsi:       5.05 MB

     Dynamical RAM for                spsi:       5.05 MB

     Dynamical RAM for      wfcinit/wfcrot:       5.05 MB

     Dynamical RAM for           addusdens:       9.18 MB

     Estimated static dynamical RAM per process >      71.46 MB

     Estimated max dynamical RAM per process >      86.65 MB

     Estimated total dynamical RAM >       2.37 GB

     Check: negative core charge=   -0.000002

     The potential is recalculated from file :
     ./outdir/carbyne.save/charge-density


     negative rho (up, down):  1.845E-04 0.000E+00
     Starting wfcs are    8 randomized atomic wfcs +    8 random wfcs
     Checking if some PAW data can be deallocated... 

     Band Structure Calculation
     Davidson diagonalization with overlap

     Computing kpt #:     1  of     4 on this pool
     total cpu time spent up to now is        6.0 secs

     Computing kpt #:     2  of     4 on this pool
     total cpu time spent up to now is       10.6 secs

     Computing kpt #:     3  of     4 on this pool
     total cpu time spent up to now is       15.1 secs

     Computing kpt #:     4  of     4 on this pool
     total cpu time spent up to now is       19.3 secs

     ethr =  1.25E-10,  avg # of iterations = 57.5

     total cpu time spent up to now is       19.7 secs

     End of band structure calculation

          k = 0.0000 0.0000 0.0000 ( 10379 PWs)   bands (ev):

   -20.6781 -13.4758  -9.7334  -9.7334  -0.1569   1.3960   1.3960   1.4422
     1.6584   2.4009   3.0326   3.0326   3.5053   4.1740   4.5464   5.9451

          k = 0.0050 0.0000 0.0000 ( 10383 PWs)   bands (ev):

   -20.6778 -13.4765  -9.7329  -9.7329  -0.1564   1.3966   1.3966   1.4427
     1.6589   2.4015   3.0332   3.0332   3.5059   4.1749   4.5469   5.9457

          k = 0.0100 0.0000 0.0000 ( 10379 PWs)   bands (ev):

   -20.6768 -13.4785  -9.7313  -9.7313  -0.1547   1.3983   1.3983   1.4444
     1.6605   2.4032   3.0349   3.0349   3.5075   4.1778   4.5486   5.9474

          k = 0.0150 0.0000 0.0000 ( 10387 PWs)   bands (ev):

   -20.6752 -13.4820  -9.7286  -9.7286  -0.1519   1.4011   1.4011   1.4473
     1.6633   2.4060   3.0377   3.0377   3.5103   4.1824   4.5515   5.9503

          k = 0.0200 0.0000 0.0000 ( 10387 PWs)   bands (ev):

   -20.6729 -13.4868  -9.7248  -9.7248  -0.1481   1.4051   1.4051   1.4513
     1.6671   2.4100   3.0417   3.0417   3.5141   4.1890   4.5555   5.9543

          k = 0.0250 0.0000 0.0000 ( 10395 PWs)   bands (ev):

   -20.6700 -13.4929  -9.7200  -9.7199  -0.1431   1.4102   1.4102   1.4564
     1.6721   2.4152   3.0468   3.0468   3.5190   4.1974   4.5606   5.9594

          k = 0.0300 0.0000 0.0000 ( 10379 PWs)   bands (ev):

   -20.6665 -13.5004  -9.7140  -9.7140  -0.1371   1.4165   1.4165   1.4627
     1.6781   2.4214   3.0531   3.0531   3.5250   4.2077   4.5669   5.9657

          k = 0.0350 0.0000 0.0000 ( 10363 PWs)   bands (ev):

   -20.6623 -13.5092  -9.7070  -9.7070  -0.1299   1.4239   1.4239   1.4701
     1.6852   2.4289   3.0605   3.0605   3.5322   4.2198   4.5743   5.9731

          k = 0.0400 0.0000 0.0000 ( 10355 PWs)   bands (ev):

   -20.6574 -13.5194  -9.6989  -9.6989  -0.1216   1.4324   1.4324   1.4787
     1.6935   2.4374   3.0690   3.0690   3.5404   4.2337   4.5829   5.9817

          k = 0.0450 0.0000 0.0000 ( 10355 PWs)   bands (ev):

   -20.6519 -13.5310  -9.6897  -9.6897  -0.1123   1.4421   1.4421   1.4884
     1.7028   2.4472   3.0787   3.0787   3.5497   4.2495   4.5926   5.9914

          k = 0.0500 0.0000 0.0000 ( 10355 PWs)   bands (ev):

   -20.6458 -13.5438  -9.6795  -9.6795  -0.1018   1.4528   1.4528   1.4993
     1.7132   2.4580   3.0895   3.0895   3.5601   4.2671   4.6035   6.0022

          k = 0.0550 0.0000 0.0000 ( 10355 PWs)   bands (ev):

   -20.6390 -13.5580  -9.6682  -9.6682  -0.0902   1.4648   1.4648   1.5113
     1.7247   2.4700   3.1015   3.1015   3.5716   4.2865   4.6155   6.0142

          k = 0.0600 0.0000 0.0000 ( 10339 PWs)   bands (ev):

   -20.6316 -13.5735  -9.6557  -9.6557  -0.0775   1.4779   1.4779   1.5244
     1.7373   2.4831   3.1146   3.1146   3.5842   4.3076   4.6286   6.0274

          k = 0.0650 0.0000 0.0000 ( 10347 PWs)   bands (ev):

   -20.6235 -13.5902  -9.6423  -9.6423  -0.0637   1.4921   1.4921   1.5387
     1.7510   2.4974   3.1288   3.1288   3.5979   4.3305   4.6429   6.0417

          k = 0.0700 0.0000 0.0000 ( 10347 PWs)   bands (ev):

   -20.6148 -13.6082  -9.6277  -9.6277  -0.0489   1.5074   1.5074   1.5541
     1.7658   2.5129   3.1442   3.1442   3.6127   4.3551   4.6583   6.0571

          k = 0.0750 0.0000 0.0000 ( 10335 PWs)   bands (ev):

   -20.6055 -13.6275  -9.6121  -9.6121  -0.0329   1.5239   1.5239   1.5707
     1.7817   2.5294   3.1607   3.1607   3.6286   4.3815   4.6749   6.0774

          k = 0.0800 0.0000 0.0000 ( 10335 PWs)   bands (ev):

   -20.5955 -13.6481  -9.5953  -9.5953  -0.0158   1.5415   1.5415   1.5884
     1.7987   2.5471   3.1783   3.1783   3.6455   4.4095   4.6926   5.9919

          k = 0.0850 0.0000 0.0000 ( 10351 PWs)   bands (ev):

   -20.5849 -13.6699  -9.5775  -9.5775   0.0024   1.5603   1.5603   1.6073
     1.8168   2.5660   3.1971   3.1971   3.6636   4.4392   4.7114   5.9020

          k = 0.0900 0.0000 0.0000 ( 10343 PWs)   bands (ev):

   -20.5736 -13.6929  -9.5587  -9.5587   0.0217   1.5801   1.5801   1.6273
     1.8360   2.5860   3.2170   3.2170   3.6828   4.4706   4.7314   5.8080

          k = 0.0950 0.0000 0.0000 ( 10347 PWs)   bands (ev):

   -20.5617 -13.7171  -9.5387  -9.5387   0.0420   1.6012   1.6012   1.6484
     1.8563   2.6071   3.2381   3.2381   3.7030   4.5035   4.7526   5.7105

          k = 0.1000 0.0000 0.0000 ( 10355 PWs)   bands (ev):

   -20.5492 -13.7424  -9.5177  -9.5177   0.0635   1.6233   1.6233   1.6707
     1.8776   2.6294   3.2603   3.2603   3.7244   4.5381   4.7749   5.6095

          k = 0.1050 0.0000 0.0000 ( 10347 PWs)   bands (ev):

   -20.5360 -13.7690  -9.4956  -9.4956   0.0861   1.6466   1.6466   1.6941
     1.9001   2.6528   3.2836   3.2836   3.7468   4.5742   4.7983   5.5054

          k = 0.1100 0.0000 0.0000 ( 10367 PWs)   bands (ev):

   -20.5222 -13.7967  -9.4724  -9.4724   0.1098   1.6711   1.6711   1.7187
     1.9237   2.6774   3.3081   3.3081   3.7703   4.6118   4.8228   5.3983

          k = 0.1150 0.0000 0.0000 ( 10359 PWs)   bands (ev):

   -20.5077 -13.8255  -9.4482  -9.4482   0.1345   1.6966   1.6966   1.7444
     1.9483   2.7031   3.3337   3.3337   3.7950   4.6508   4.8485   5.2884

          k = 0.1200 0.0000 0.0000 ( 10367 PWs)   bands (ev):

   -20.4927 -13.8554  -9.4228  -9.4228   0.1604   1.7233   1.7233   1.7712
     1.9740   2.7299   3.3604   3.3604   3.8207   4.6914   4.8754   5.1758

          k = 0.1250 0.0000 0.0000 ( 10359 PWs)   bands (ev):

   -20.4770 -13.8864  -9.3964  -9.3964   0.1874   1.7512   1.7512   1.7992
     2.0009   2.7579   3.3883   3.3883   3.8475   4.7333   4.9034   5.0608

          k = 0.1300 0.0000 0.0000 ( 10343 PWs)   bands (ev):

   -20.4607 -13.9184  -9.3690  -9.3690   0.2154   1.7801   1.7801   1.8283
     2.0288   2.7871   3.4173   3.4173   3.8754   4.7766   4.9325   4.9436

          k = 0.1350 0.0000 0.0000 ( 10339 PWs)   bands (ev):

   -20.4437 -13.9515  -9.3404  -9.3404   0.2446   1.8103   1.8103   1.8586
     2.0578   2.8173   3.4475   3.4475   3.9044   4.8213   4.8243   4.8243

          k = 0.1400 0.0000 0.0000 ( 10343 PWs)   bands (ev):

   -20.4261 -13.9856  -9.3108  -9.3108   0.2748   1.8415   1.8415   1.8900
     2.0879   2.8488   3.4787   3.4787   3.9345   4.7031   4.7031   4.8672

          k = 0.1450 0.0000 0.0000 ( 10363 PWs)   bands (ev):

   -20.4079 -14.0207  -9.2801  -9.2801   0.3062   1.8739   1.8739   1.9226
     2.1191   2.8813   3.5111   3.5111   3.9656   4.5800   4.5800   4.9143

          k = 0.1500 0.0000 0.0000 ( 10351 PWs)   bands (ev):

   -20.3891 -14.0568  -9.2484  -9.2483   0.3386   1.9074   1.9074   1.9563
     2.1513   2.9150   3.5446   3.5446   3.9979   4.4554   4.4554   4.9627

          k = 0.1550 0.0000 0.0000 ( 10347 PWs)   bands (ev):

   -20.3697 -14.0938  -9.2155  -9.2155   0.3721   1.9420   1.9420   1.9912
     2.1847   2.9499   3.5793   3.5793   4.0312   4.3292   4.3292   5.0122

          k = 0.1600 0.0000 0.0000 ( 10347 PWs)   bands (ev):

   -20.3496 -14.1317  -9.1816  -9.1816   0.4067   1.9778   1.9778   2.0272
     2.2191   2.9859   3.6150   3.6150   4.0657   4.2017   4.2017   5.0628

          k = 0.1650 0.0000 0.0000 ( 10363 PWs)   bands (ev):

   -20.3289 -14.1706  -9.1466  -9.1466   0.4424   2.0147   2.0147   2.0643
     2.2546   3.0230   3.6517   3.6517   4.0731   4.0731   4.1012   5.1143

          k = 0.1700 0.0000 0.0000 ( 10371 PWs)   bands (ev):

   -20.3077 -14.2103  -9.1106  -9.1106   0.4792   2.0527   2.0527   2.1026
     2.2912   3.0613   3.6891   3.6891   3.9438   3.9438   4.1378   5.1669

          k = 0.1750 0.0000 0.0000 ( 10375 PWs)   bands (ev):

   -20.2858 -14.2509  -9.0735  -9.0735   0.5171   2.0919   2.0919   2.1420
     2.3289   3.1007   3.7248   3.7248   3.8162   3.8162   4.1755   5.2204

          k = 0.1800 0.0000 0.0000 ( 10383 PWs)   bands (ev):

   -20.2633 -14.2923  -9.0353  -9.0353   0.5561   2.1322   2.1322   2.1826
     2.3677   3.1413   3.6741   3.6741   3.7754   3.7754   4.2142   5.2748

          k = 0.1850 0.0000 0.0000 ( 10395 PWs)   bands (ev):

   -20.2401 -14.3345  -8.9960  -8.9960   0.5961   2.1736   2.1736   2.2243
     2.4076   3.1830   3.5443   3.5443   3.8139   3.8139   4.2541   5.3300

          k = 0.1900 0.0000 0.0000 ( 10387 PWs)   bands (ev):

   -20.2164 -14.3775  -8.9557  -8.9557   0.6372   2.2161   2.2161   2.2671
     2.4485   3.2258   3.4114   3.4114   3.8559   3.8559   4.2950   5.3712

          k = 0.1950 0.0000 0.0000 ( 10387 PWs)   bands (ev):

   -20.1921 -14.4213  -8.9143  -8.9143   0.6795   2.2597   2.2597   2.3111
     2.4905   3.2698   3.2775   3.2775   3.8994   3.8994   4.3370   5.4152

          k = 0.2000 0.0000 0.0000 ( 10395 PWs)   bands (ev):

   -20.1672 -14.4658  -8.8719  -8.8719   0.7228   2.3044   2.3044   2.3562
     2.5336   3.1429   3.1429   3.3149   3.9442   3.9442   4.3801   5.4603

          k = 0.2050 0.0000 0.0000 ( 10395 PWs)   bands (ev):

   -20.1417 -14.5110  -8.8284  -8.8284   0.7671   2.3502   2.3502   2.4025
     2.5777   3.0079   3.0079   3.3612   3.9902   3.9902   4.4243   5.5066

          k = 0.2100 0.0000 0.0000 ( 10387 PWs)   bands (ev):

   -20.1156 -14.5569  -8.7838  -8.7838   0.8126   2.3968   2.3968   2.4499
     2.6230   2.8727   2.8727   3.4086   4.0374   4.0374   4.4695   5.5540

          k = 0.2150 0.0000 0.0000 ( 10395 PWs)   bands (ev):

   -20.0888 -14.6035  -8.7381  -8.7381   0.8591   2.4439   2.4439   2.4985
     2.6693   2.7378   2.7378   3.4572   4.0857   4.0857   4.5158   5.6026

          k = 0.2200 0.0000 0.0000 ( 10403 PWs)   bands (ev):

   -20.0616 -14.6507  -8.6914  -8.6914   0.9067   2.4881   2.4881   2.5482
     2.6065   2.6065   2.7167   3.5069   4.1352   4.1352   4.5632   5.6523

          k = 0.2250 0.0000 0.0000 ( 10403 PWs)   bands (ev):

   -20.0337 -14.6986  -8.6437  -8.6437   0.9554   2.4518   2.4518   2.5567
     2.5567   2.5990   2.7651   3.5577   4.1858   4.1858   4.6117   5.7031

          k = 0.2300 0.0000 0.0000 ( 10379 PWs)   bands (ev):

   -20.0052 -14.7470  -8.5948  -8.5948   1.0051   2.3213   2.3213   2.6020
     2.6020   2.6510   2.8146   3.6097   4.2376   4.2376   4.6612   5.7551

          k = 0.2350 0.0000 0.0000 ( 10367 PWs)   bands (ev):

   -19.9762 -14.7960  -8.5450  -8.5450   1.0559   2.1857   2.1857   2.6535
     2.6535   2.7041   2.8652   3.6628   4.2905   4.2905   4.7118   5.8082

          k = 0.2400 0.0000 0.0000 ( 10367 PWs)   bands (ev):

   -19.9465 -14.8456  -8.4940  -8.4940   1.1078   2.0493   2.0493   2.7069
     2.7069   2.7584   2.9169   3.7171   4.3446   4.3446   4.7635   5.8625

          k = 0.2450 0.0000 0.0000 ( 10367 PWs)   bands (ev):

   -19.9163 -14.8957  -8.4420  -8.4420   1.1608   1.9125   1.9125   2.7617
     2.7617   2.8138   2.9696   3.7725   4.3998   4.3998   4.8163   5.9179

          k = 0.2500 0.0000 0.0000 ( 10359 PWs)   bands (ev):

   -19.8856 -14.9462  -8.3890  -8.3890   1.2148   1.7758   1.7758   2.8177
     2.8177   2.8704   3.0233   3.8291   4.4561   4.4561   4.8701   5.9745

          k = 0.2550 0.0000 0.0000 ( 10359 PWs)   bands (ev):

   -19.8542 -14.9973  -8.3348  -8.3348   1.2698   1.6390   1.6390   2.8750
     2.8750   2.9281   3.0782   3.8868   4.5136   4.5136   4.9249   6.0322

          k = 0.2600 0.0000 0.0000 ( 10367 PWs)   bands (ev):

   -19.8223 -15.0489  -8.2797  -8.2797   1.3260   1.5023   1.5024   2.9334
     2.9334   2.9869   3.1340   3.9456   4.5722   4.5722   4.9808   6.0910

          k = 0.2650 0.0000 0.0000 ( 10367 PWs)   bands (ev):

   -19.7899 -15.1008  -8.2235  -8.2235   1.3658   1.3658   1.3831   2.9930
     2.9930   3.0469   3.1910   4.0056   4.6319   4.6319   5.0378   6.1510

          k = 0.2700 0.0000 0.0000 ( 10351 PWs)   bands (ev):

   -19.7568 -15.1532  -8.1662  -8.1662   1.2295   1.2295   1.4414   3.0537
     3.0537   3.1080   3.2489   4.0667   4.6928   4.6928   5.0958   6.2121

          k = 0.2750 0.0000 0.0000 ( 10367 PWs)   bands (ev):

   -19.7233 -15.2060  -8.1079  -8.1079   1.0935   1.0935   1.5007   3.1155
     3.1155   3.1703   3.3080   4.1290   4.7548   4.7548   5.1549   6.2744

          k = 0.2800 0.0000 0.0000 ( 10351 PWs)   bands (ev):

   -19.6892 -15.2592  -8.0485  -8.0485   0.9577   0.9577   1.5610   3.1785
     3.1785   3.2337   3.3681   4.1924   4.8180   4.8180   5.2150   6.3378

          k = 0.2850 0.0000 0.0000 ( 10359 PWs)   bands (ev):

   -19.6545 -15.3127  -7.9881  -7.9881   0.8222   0.8222   1.6223   3.2427
     3.2427   3.2983   3.4292   4.2570   4.8823   4.8823   5.2762   6.4023

          k = 0.2900 0.0000 0.0000 ( 10347 PWs)   bands (ev):

   -19.6193 -15.3666  -7.9266  -7.9266   0.6871   0.6871   1.6847   3.3079
     3.3079   3.3640   3.4913   4.3227   4.9477   4.9477   5.3384   6.4680

          k = 0.2950 0.0000 0.0000 ( 10347 PWs)   bands (ev):

   -19.5835 -15.4208  -7.8641  -7.8641   0.5523   0.5523   1.7482   3.3744
     3.3744   3.4308   3.5545   4.3895   5.0143   5.0143   5.4017   6.5348

          k = 0.3000 0.0000 0.0000 ( 10355 PWs)   bands (ev):

   -19.5472 -15.4752  -7.8006  -7.8006   0.4180   0.4180   1.8126   3.4419
     3.4419   3.4988   3.6187   4.4575   5.0820   5.0820   5.4660   6.6028

          k = 0.3050 0.0000 0.0000 ( 10351 PWs)   bands (ev):

   -19.5104 -15.5300  -7.7360  -7.7360   0.2841   0.2841   1.8781   3.5106
     3.5106   3.5679   3.6840   4.5266   5.1509   5.1509   5.5313   6.6533

          k = 0.3100 0.0000 0.0000 ( 10375 PWs)   bands (ev):

   -19.4731 -15.5850  -7.6704  -7.6704   0.1506   0.1506   1.9446   3.5804
     3.5804   3.6382   3.7502   4.5969   5.2208   5.2208   5.5976   6.6937

          k = 0.3150 0.0000 0.0000 ( 10367 PWs)   bands (ev):

   -19.4352 -15.6403  -7.6037  -7.6037   0.0177   0.0177   2.0121   3.6514
     3.6514   3.7096   3.8175   4.6683   5.2920   5.2920   5.6650   6.7314

          k = 0.3200 0.0000 0.0000 ( 10355 PWs)   bands (ev):

   -19.3968 -15.6957  -7.5360  -7.5360  -0.1148  -0.1148   2.0807   3.7235
     3.7235   3.7822   3.8858   4.7408   5.3642   5.3642   5.7333   6.7660

          k = 0.3250 0.0000 0.0000 ( 10355 PWs)   bands (ev):

   -19.3580 -15.7514  -7.4673  -7.4673  -0.2467  -0.2467   2.1502   3.7967
     3.7967   3.8559   3.9551   4.8145   5.4376   5.4376   5.8027   6.7972

          k = 0.3300 0.0000 0.0000 ( 10339 PWs)   bands (ev):

   -19.3186 -15.8073  -7.3975  -7.3975  -0.3780  -0.3780   2.2207   3.8711
     3.8711   3.9307   4.0255   4.8894   5.5121   5.5121   5.8730   6.8247

          k = 0.3350 0.0000 0.0000 ( 10351 PWs)   bands (ev):

   -19.2787 -15.8633  -7.3267  -7.3267  -0.5088  -0.5088   2.2923   3.9466
     3.9466   4.0067   4.0968   4.9654   5.5878   5.5878   5.9444   6.8484

          k = 0.3400 0.0000 0.0000 ( 10359 PWs)   bands (ev):

   -19.2383 -15.9195  -7.2549  -7.2549  -0.6390  -0.6389   2.3648   4.0232
     4.0232   4.0838   4.1691   5.0425   5.6646   5.6646   6.0167   6.8679

          k = 0.3450 0.0000 0.0000 ( 10327 PWs)   bands (ev):

   -19.1974 -15.9757  -7.1821  -7.1821  -0.7685  -0.7685   2.4382   4.1009
     4.1009   4.1621   4.2424   5.1207   5.7425   5.7425   6.0899   6.8830

          k = 0.3500 0.0000 0.0000 ( 10323 PWs)   bands (ev):

   -19.1560 -16.0321  -7.1082  -7.1082  -0.8974  -0.8974   2.5127   4.1798
     4.1798   4.2415   4.3167   5.2002   5.8216   5.8216   6.1641   6.8934

          k = 0.3550 0.0000 0.0000 ( 10331 PWs)   bands (ev):

   -19.1142 -16.0887  -7.0333  -7.0333  -1.0256  -1.0256   2.5881   4.2598
     4.2598   4.3220   4.3919   5.2807   5.9018   5.9018   6.2392   6.8990

          k = 0.3600 0.0000 0.0000 ( 10335 PWs)   bands (ev):

   -19.0718 -16.1452  -6.9574  -6.9574  -1.1532  -1.1532   2.6645   4.3410
     4.3410   4.4037   4.4681   5.3624   5.9831   5.9831   6.3151   6.8996

          k = 0.3650 0.0000 0.0000 ( 10327 PWs)   bands (ev):

   -19.0290 -16.2019  -6.8805  -6.8805  -1.2801  -1.2801   2.7418   4.4233
     4.4233   4.4866   4.5453   5.4452   6.0656   6.0656   6.3918   6.8950

          k = 0.3700 0.0000 0.0000 ( 10327 PWs)   bands (ev):

   -18.9858 -16.2586  -6.8026  -6.8026  -1.4062  -1.4062   2.8200   4.5067
     4.5067   4.5706   4.6234   5.5292   6.1492   6.1492   6.4690   6.8854

          k = 0.3750 0.0000 0.0000 ( 10323 PWs)   bands (ev):

   -18.9421 -16.3153  -6.7237  -6.7237  -1.5317  -1.5317   2.8992   4.5912
     4.5912   4.6557   4.7025   5.6143   6.2339   6.2339   6.5463   6.8710

          k = 0.3800 0.0000 0.0000 ( 10315 PWs)   bands (ev):

   -18.8979 -16.3720  -6.6438  -6.6438  -1.6564  -1.6564   2.9792   4.6769
     4.6769   4.7419   4.7825   5.7006   6.3198   6.3198   6.6227   6.8530

          k = 0.3850 0.0000 0.0000 ( 10319 PWs)   bands (ev):

   -18.8533 -16.4288  -6.5628  -6.5628  -1.7803  -1.7803   3.0602   4.7637
     4.7637   4.8294   4.8634   5.7880   6.4068   6.4068   6.6933   6.8359

          k = 0.3900 0.0000 0.0000 ( 10299 PWs)   bands (ev):

   -18.8082 -16.4855  -6.4809  -6.4809  -1.9035  -1.9035   3.1420   4.8516
     4.8516   4.9179   4.9453   5.8765   6.4950   6.4950   6.7352   6.8429

          k = 0.3950 0.0000 0.0000 ( 10323 PWs)   bands (ev):

   -18.7628 -16.5422  -6.3980  -6.3980  -2.0259  -2.0259   3.2247   4.9406
     4.9407   5.0076   5.0280   5.9662   6.5842   6.5842   6.7228   6.8997

          k = 0.4000 0.0000 0.0000 ( 10291 PWs)   bands (ev):

   -18.7169 -16.5988  -6.3141  -6.3141  -2.1475  -2.1475   3.3083   5.0308
     5.0308   5.0984   5.1116   6.0571   6.6746   6.6746   6.6862   6.9761

          k = 0.4050 0.0000 0.0000 ( 10287 PWs)   bands (ev):

   -18.6706 -16.6554  -6.2293  -6.2293  -2.2683  -2.2683   3.3927   5.1221
     5.1221   5.1904   5.1960   6.1490   6.6402   6.7662   6.7662   7.0579

          k = 0.4100 0.0000 0.0000 ( 10279 PWs)   bands (ev):

   -18.6238 -16.7119  -6.1435  -6.1435  -2.3882  -2.3882   3.4779   5.2146
     5.2146   5.2813   5.2835   6.2422   6.5878   6.8589   6.8589   7.1420

          k = 0.4150 0.0000 0.0000 ( 10287 PWs)   bands (ev):

   -18.5767 -16.7683  -6.0567  -6.0567  -2.5073  -2.5073   3.5638   5.3081
     5.3081   5.3674   5.3778   6.3364   6.5303   6.9527   6.9527   7.2276

          k = 0.4200 0.0000 0.0000 ( 10287 PWs)   bands (ev):

   -18.5293 -16.8246  -5.9690  -5.9690  -2.6255  -2.6255   3.6506   5.4028
     5.4028   5.4543   5.4732   6.4318   6.4681   7.0476   7.0476   7.3143

          k = 0.4250 0.0000 0.0000 ( 10287 PWs)   bands (ev):

   -18.4814 -16.8807  -5.8804  -5.8804  -2.7429  -2.7429   3.7381   5.4986
     5.4986   5.5419   5.5697   6.4018   6.5284   7.1436   7.1436   7.4021

          k = 0.4300 0.0000 0.0000 ( 10271 PWs)   bands (ev):

   -18.4332 -16.9367  -5.7908  -5.7908  -2.8593  -2.8593   3.8263   5.5956
     5.5956   5.6301   5.6674   6.3320   6.6261   7.2408   7.2408   7.4907

          k = 0.4350 0.0000 0.0000 ( 10259 PWs)   bands (ev):

   -18.3847 -16.9925  -5.7004  -5.7004  -2.9748  -2.9748   3.9151   5.6937
     5.6937   5.7187   5.7663   6.2590   6.7249   7.3392   7.3392   7.5802

          k = 0.4400 0.0000 0.0000 ( 10251 PWs)   bands (ev):

   -18.3358 -17.0481  -5.6090  -5.6090  -3.0893  -3.0893   4.0046   5.7928
     5.7928   5.8073   5.8662   6.1839   6.8249   7.4386   7.4386   7.6701

          k = 0.4450 0.0000 0.0000 ( 10271 PWs)   bands (ev):

   -18.2866 -17.1035  -5.5169  -5.5169  -3.2028  -3.2028   4.0948   5.8932
     5.8932   5.8938   5.9674   6.1088   6.9260   7.5392   7.5392   7.7599

          k = 0.4500 0.0000 0.0000 ( 10271 PWs)   bands (ev):

   -18.2372 -17.1587  -5.4240  -5.4240  -3.3152  -3.3152   4.1855   5.9593
     5.9946   5.9946   6.0530   6.0696   7.0282   7.6409   7.6409   7.8444

          k = 0.4550 0.0000 0.0000 ( 10279 PWs)   bands (ev):

   -18.1875 -17.2135  -5.3304  -5.3304  -3.4265  -3.4265   4.2767   5.9201
     6.0971   6.0971   6.1007   6.1730   7.1316   7.7436   7.7436   7.8340

          k = 0.4600 0.0000 0.0000 ( 10278 PWs)   bands (ev):

   -18.1377 -17.2680  -5.2361  -5.2361  -3.5366  -3.5366   4.3683   5.8404
     6.1875   6.2008   6.2008   6.2776   7.2362   7.7404   7.8473   7.8473

          k = 0.4650 0.0000 0.0000 ( 10262 PWs)   bands (ev):

   -18.0878 -17.3220  -5.1414  -5.1414  -3.6453  -3.6453   4.4604   5.7550
     6.2792   6.3056   6.3056   6.3833   7.3418   7.6421   7.8893   7.8893

          k = 0.4700 0.0000 0.0000 ( 10254 PWs)   bands (ev):

   -18.0379 -17.3754  -5.0465  -5.0465  -3.7523  -3.7523   4.5528   5.6672
     6.3725   6.4115   6.4115   6.4901   7.4487   7.5432   7.7699   7.7699

          k = 0.4750 0.0000 0.0000 ( 10246 PWs)   bands (ev):

   -17.9883 -17.4281  -4.9518  -4.9518  -3.8573  -3.8573   4.6453   5.5780
     6.4668   6.5186   6.5186   6.5981   7.4442   7.5566   7.6508   7.6508

          k = 0.4800 0.0000 0.0000 ( 10238 PWs)   bands (ev):

   -17.9393 -17.4795  -4.8580  -4.8580  -3.9594  -3.9594   4.7380   5.4878
     6.5617   6.6267   6.6267   6.7072   7.3455   7.5326   7.5326   7.6213

          k = 0.4850 0.0000 0.0000 ( 10246 PWs)   bands (ev):

   -17.8918 -17.5289  -4.7668  -4.7668  -4.0571  -4.0571   4.8304   5.3972
     6.6571   6.7359   6.7359   6.8174   7.2472   7.4156   7.4156   7.5030

          k = 0.4900 0.0000 0.0000 ( 10254 PWs)   bands (ev):

   -17.8477 -17.5744  -4.6820  -4.6820  -4.1466  -4.1466   4.9220   5.3068
     6.7525   6.8462   6.8462   6.9288   7.1497   7.2998   7.2998   7.3859

          k = 0.4950 0.0000 0.0000 ( 10254 PWs)   bands (ev):

   -17.8120 -17.6109  -4.6135  -4.6135  -4.2179  -4.2179   5.0101   5.2194
     6.8464   6.9573   6.9573   7.0413   7.0546   7.1853   7.1853   7.2700

          k = 0.5000 0.0000 0.0000 ( 10242 PWs)   bands (ev):

   -17.7968 -17.6264  -4.5843  -4.5843  -4.2481  -4.2480   5.0674   5.1622
     6.9144   6.9863   7.0570   7.0570   7.0845   7.0845   7.1509   7.1592

     Writing output data file ./outdir/carbyne.save/
 
     init_run     :      1.77s CPU      0.98s WALL (       1 calls)
     electrons    :     34.54s CPU     18.09s WALL (       1 calls)

     Called by init_run:
     wfcinit      :      0.02s CPU      0.02s WALL (       1 calls)
     wfcinit:atom :      0.01s CPU      0.01s WALL (       4 calls)
     wfcinit:wfcr :      0.76s CPU      0.39s WALL (       4 calls)
     potinit      :      0.78s CPU      0.44s WALL (       1 calls)
     hinit0       :      0.68s CPU      0.35s WALL (       1 calls)

     Called by electrons:
     c_bands      :     34.54s CPU     18.07s WALL (       1 calls)
     v_of_rho     :      0.54s CPU      0.29s WALL (       1 calls)
     v_h          :      0.04s CPU      0.02s WALL (       1 calls)
     v_xc         :      0.51s CPU      0.28s WALL (       1 calls)
     newd         :      0.04s CPU      0.03s WALL (       1 calls)
     PAW_pot      :      0.05s CPU      0.04s WALL (       1 calls)

     Called by c_bands:
     init_us_2    :      0.01s CPU      0.01s WALL (       4 calls)
     cegterg      :     31.34s CPU     15.84s WALL (      19 calls)

     Called by sum_band:

     Called by *egterg:
     cdiaghg      :      0.32s CPU      0.17s WALL (     341 calls)
     cegterg:over :      1.83s CPU      0.93s WALL (     337 calls)
     cegterg:upda :      0.96s CPU      0.48s WALL (     337 calls)
     cegterg:last :      3.27s CPU      1.66s WALL (     170 calls)
     h_psi        :     24.60s CPU     12.43s WALL (     360 calls)
     s_psi        :      0.41s CPU      0.21s WALL (     360 calls)
     g_psi        :      0.20s CPU      0.10s WALL (     337 calls)

     Called by h_psi:
     h_psi:calbec :      0.52s CPU      0.26s WALL (     360 calls)
     vloc_psi     :     23.46s CPU     11.85s WALL (     360 calls)
     add_vuspsi   :      0.45s CPU      0.23s WALL (     360 calls)

     General routines
     calbec       :      0.52s CPU      0.26s WALL (     360 calls)
     fft          :      0.17s CPU      0.09s WALL (      13 calls)
     ffts         :      0.00s CPU      0.00s WALL (       1 calls)
     fftw         :     18.69s CPU      9.44s WALL (    5104 calls)
     interpolate  :      0.03s CPU      0.02s WALL (       1 calls)
     davcio       :      0.01s CPU      0.01s WALL (       8 calls)
 
     Parallel routines

     PAW routines
     PAW_pot      :      0.05s CPU      0.04s WALL (       1 calls)
 
     PWSCF        :     36.70s CPU     20.49s WALL

 
   This run was terminated on:  20:44:43  24Jun2021            

=------------------------------------------------------------------------------=
   JOB DONE.
=------------------------------------------------------------------------------=
