
     Program PROJWFC v.6.7MaX starts on 11Jun2021 at 23: 0:39 

     This program is part of the open-source Quantum ESPRESSO suite
     for quantum simulation of materials; please cite
         "P. Giannozzi et al., J. Phys.:Condens. Matter 21 395502 (2009);
         "P. Giannozzi et al., J. Phys.:Condens. Matter 29 465901 (2017);
          URL http://www.quantum-espresso.org", 
     in publications or presentations arising from this work. More details at
     http://www.quantum-espresso.org/quote

     Parallel version (MPI & OpenMP), running on      56 processor cores
     Number of MPI processes:                 1
     Threads/MPI process:                    56

     MPI processes distributed on     1 nodes

     Reading xml data from directory:

     ./outdir/carbyne.save/
     file C.pbe-n-kjpaw_psl.1.0.0.UPF: wavefunction(s)  2S 2P renormalized

     IMPORTANT: XC functional enforced from input :
     Exchange-correlation= PBE
                           (   1   4   3   4   0   0   0)
     Any further DFT definition will be discarded
     Please, verify this is what you really want

 
     G-vector sticks info
     --------------------
     sticks:   dense  smooth     PW     G-vecs:    dense   smooth      PW
     Sum       56853   22733   6777              1307799   330385   53475
 

     negative rho (up, down):  5.469E-04 0.000E+00

     Gaussian broadening (read from input): ngauss,degauss=   1    0.020000


     Calling projwave .... 
 
  Problem Sizes 
  natomwfc =            8
  nbnd     =            8
  nkstot   =           51
  npwx     =        41563
  nkb      =           16
 

     Atomic states used for projection
     (read from pseudopotential files):

     state #   1: atom   1 (C  ), wfc  1 (l=0 m= 1)
     state #   2: atom   1 (C  ), wfc  2 (l=1 m= 1)
     state #   3: atom   1 (C  ), wfc  2 (l=1 m= 2)
     state #   4: atom   1 (C  ), wfc  2 (l=1 m= 3)
     state #   5: atom   2 (C  ), wfc  1 (l=0 m= 1)
     state #   6: atom   2 (C  ), wfc  2 (l=1 m= 1)
     state #   7: atom   2 (C  ), wfc  2 (l=1 m= 2)
     state #   8: atom   2 (C  ), wfc  2 (l=1 m= 3)

 k =   0.0000000000  0.0000000000  0.0000000000
==== e(   1) =   -21.25955 eV ==== 
     psi = 0.491*[#   1]+0.491*[#   5]
    |psi|^2 = 0.982
==== e(   2) =   -14.05539 eV ==== 
     psi = 0.494*[#   2]+0.494*[#   6]
    |psi|^2 = 0.989
==== e(   3) =   -10.31851 eV ==== 
     psi = 0.240*[#   3]+0.240*[#   4]+0.240*[#   7]+0.240*[#   8]
    |psi|^2 = 0.959
==== e(   4) =   -10.31851 eV ==== 
     psi = 0.240*[#   3]+0.240*[#   4]+0.240*[#   7]+0.240*[#   8]
    |psi|^2 = 0.959
==== e(   5) =    -0.51582 eV ==== 
     psi = 0.003*[#   1]+0.003*[#   5]
    |psi|^2 = 0.006
==== e(   6) =     0.08570 eV ==== 
 
    |psi|^2 = 0.001
==== e(   7) =     0.18632 eV ==== 
     psi = 0.002*[#   3]+0.002*[#   4]+0.002*[#   7]+0.002*[#   8]
    |psi|^2 = 0.007
==== e(   8) =     0.18632 eV ==== 
     psi = 0.002*[#   3]+0.002*[#   4]+0.002*[#   7]+0.002*[#   8]
    |psi|^2 = 0.007

 k =   0.0000000000  0.0000000000  0.0779427659
==== e(   1) =   -21.25825 eV ==== 
     psi = 0.491*[#   1]+0.491*[#   5]
    |psi|^2 = 0.982
==== e(   2) =   -14.05812 eV ==== 
     psi = 0.494*[#   2]+0.494*[#   6]
    |psi|^2 = 0.989
==== e(   3) =   -10.31635 eV ==== 
     psi = 0.240*[#   3]+0.240*[#   4]+0.240*[#   7]+0.240*[#   8]
    |psi|^2 = 0.960
==== e(   4) =   -10.31635 eV ==== 
     psi = 0.240*[#   3]+0.240*[#   4]+0.240*[#   7]+0.240*[#   8]
    |psi|^2 = 0.960
==== e(   5) =    -0.51364 eV ==== 
     psi = 0.003*[#   1]+0.003*[#   5]
    |psi|^2 = 0.006
==== e(   6) =     0.08797 eV ==== 
 
    |psi|^2 = 0.001
==== e(   7) =     0.18860 eV ==== 
     psi = 0.002*[#   3]+0.002*[#   4]+0.002*[#   7]+0.002*[#   8]
    |psi|^2 = 0.007
==== e(   8) =     0.18860 eV ==== 
     psi = 0.002*[#   3]+0.002*[#   4]+0.002*[#   7]+0.002*[#   8]
    |psi|^2 = 0.007

 k =   0.0000000000  0.0000000000  0.1558855317
==== e(   1) =   -21.25438 eV ==== 
     psi = 0.490*[#   1]+0.490*[#   5]+0.001*[#   2]+0.001*[#   6]
    |psi|^2 = 0.982
==== e(   2) =   -14.06633 eV ==== 
     psi = 0.494*[#   2]+0.494*[#   6]
    |psi|^2 = 0.989
==== e(   3) =   -10.30989 eV ==== 
     psi = 0.240*[#   3]+0.240*[#   4]+0.240*[#   7]+0.240*[#   8]
    |psi|^2 = 0.960
==== e(   4) =   -10.30989 eV ==== 
     psi = 0.240*[#   3]+0.240*[#   4]+0.240*[#   7]+0.240*[#   8]
    |psi|^2 = 0.960
==== e(   5) =    -0.50708 eV ==== 
     psi = 0.003*[#   1]+0.003*[#   5]
    |psi|^2 = 0.007
==== e(   6) =     0.09478 eV ==== 
 
    |psi|^2 = 0.001
==== e(   7) =     0.19544 eV ==== 
     psi = 0.002*[#   3]+0.002*[#   4]+0.002*[#   7]+0.002*[#   8]
    |psi|^2 = 0.007
==== e(   8) =     0.19544 eV ==== 
     psi = 0.002*[#   3]+0.002*[#   4]+0.002*[#   7]+0.002*[#   8]
    |psi|^2 = 0.007

 k =   0.0000000000  0.0000000000  0.2338282976
==== e(   1) =   -21.24792 eV ==== 
     psi = 0.488*[#   1]+0.488*[#   5]+0.003*[#   2]+0.003*[#   6]
    |psi|^2 = 0.982
==== e(   2) =   -14.07997 eV ==== 
     psi = 0.493*[#   2]+0.493*[#   6]+0.001*[#   1]+0.001*[#   5]
    |psi|^2 = 0.989
==== e(   3) =   -10.29911 eV ==== 
     psi = 0.240*[#   3]+0.240*[#   4]+0.240*[#   7]+0.240*[#   8]
    |psi|^2 = 0.960
==== e(   4) =   -10.29911 eV ==== 
     psi = 0.240*[#   3]+0.240*[#   4]+0.240*[#   7]+0.240*[#   8]
    |psi|^2 = 0.960
==== e(   5) =    -0.49616 eV ==== 
     psi = 0.003*[#   1]+0.003*[#   5]+0.002*[#   2]+0.002*[#   6]
    |psi|^2 = 0.008
==== e(   6) =     0.10613 eV ==== 
 
    |psi|^2 = 0.001
==== e(   7) =     0.20685 eV ==== 
     psi = 0.002*[#   3]+0.002*[#   4]+0.002*[#   7]+0.002*[#   8]
    |psi|^2 = 0.007
==== e(   8) =     0.20685 eV ==== 
     psi = 0.002*[#   3]+0.002*[#   4]+0.002*[#   7]+0.002*[#   8]
    |psi|^2 = 0.007

 k =   0.0000000000  0.0000000000  0.3117710634
==== e(   1) =   -21.23888 eV ==== 
     psi = 0.486*[#   1]+0.486*[#   5]+0.005*[#   2]+0.005*[#   6]
    |psi|^2 = 0.982
==== e(   2) =   -14.09900 eV ==== 
     psi = 0.492*[#   2]+0.492*[#   6]+0.002*[#   1]+0.002*[#   5]
    |psi|^2 = 0.989
==== e(   3) =   -10.28402 eV ==== 
     psi = 0.240*[#   3]+0.240*[#   4]+0.240*[#   7]+0.240*[#   8]
    |psi|^2 = 0.960
==== e(   4) =   -10.28402 eV ==== 
     psi = 0.240*[#   3]+0.240*[#   4]+0.240*[#   7]+0.240*[#   8]
    |psi|^2 = 0.960
==== e(   5) =    -0.48087 eV ==== 
     psi = 0.003*[#   2]+0.003*[#   6]+0.002*[#   1]+0.002*[#   5]
    |psi|^2 = 0.010
==== e(   6) =     0.12202 eV ==== 
 
    |psi|^2 = 0.001
==== e(   7) =     0.22281 eV ==== 
     psi = 0.002*[#   3]+0.002*[#   4]+0.002*[#   7]+0.002*[#   8]
    |psi|^2 = 0.007
==== e(   8) =     0.22281 eV ==== 
     psi = 0.002*[#   3]+0.002*[#   4]+0.002*[#   7]+0.002*[#   8]
    |psi|^2 = 0.007

 k =   0.0000000000  0.0000000000  0.3897138293
==== e(   1) =   -21.22726 eV ==== 
     psi = 0.483*[#   1]+0.483*[#   5]+0.008*[#   2]+0.008*[#   6]
    |psi|^2 = 0.982
==== e(   2) =   -14.12337 eV ==== 
     psi = 0.491*[#   2]+0.491*[#   6]+0.004*[#   1]+0.004*[#   5]
    |psi|^2 = 0.989
==== e(   3) =   -10.26461 eV ==== 
     psi = 0.240*[#   3]+0.240*[#   4]+0.240*[#   7]+0.240*[#   8]
    |psi|^2 = 0.961
==== e(   4) =   -10.26461 eV ==== 
     psi = 0.240*[#   3]+0.240*[#   4]+0.240*[#   7]+0.240*[#   8]
    |psi|^2 = 0.961
==== e(   5) =    -0.46122 eV ==== 
     psi = 0.004*[#   2]+0.004*[#   6]+0.002*[#   1]+0.002*[#   5]
    |psi|^2 = 0.013
==== e(   6) =     0.14244 eV ==== 
 
    |psi|^2 = 0.002
==== e(   7) =     0.24334 eV ==== 
     psi = 0.002*[#   3]+0.002*[#   4]+0.002*[#   7]+0.002*[#   8]
    |psi|^2 = 0.007
==== e(   8) =     0.24334 eV ==== 
     psi = 0.002*[#   3]+0.002*[#   4]+0.002*[#   7]+0.002*[#   8]
    |psi|^2 = 0.007

 k =   0.0000000000  0.0000000000  0.4676565951
==== e(   1) =   -21.21307 eV ==== 
     psi = 0.480*[#   1]+0.480*[#   5]+0.011*[#   2]+0.011*[#   6]
    |psi|^2 = 0.982
==== e(   2) =   -14.15299 eV ==== 
     psi = 0.489*[#   2]+0.489*[#   6]+0.005*[#   1]+0.005*[#   5]
    |psi|^2 = 0.989
==== e(   3) =   -10.24090 eV ==== 
     psi = 0.240*[#   3]+0.240*[#   4]+0.240*[#   7]+0.240*[#   8]
    |psi|^2 = 0.961
==== e(   4) =   -10.24090 eV ==== 
     psi = 0.240*[#   3]+0.240*[#   4]+0.240*[#   7]+0.240*[#   8]
    |psi|^2 = 0.961
==== e(   5) =    -0.43720 eV ==== 
     psi = 0.006*[#   2]+0.006*[#   6]+0.002*[#   1]+0.002*[#   5]
    |psi|^2 = 0.016
==== e(   6) =     0.16741 eV ==== 
 
    |psi|^2 = 0.002
==== e(   7) =     0.26842 eV ==== 
     psi = 0.002*[#   3]+0.002*[#   4]+0.002*[#   7]+0.002*[#   8]
    |psi|^2 = 0.007
==== e(   8) =     0.26842 eV ==== 
     psi = 0.002*[#   3]+0.002*[#   4]+0.002*[#   7]+0.002*[#   8]
    |psi|^2 = 0.007

 k =   0.0000000000  0.0000000000  0.5455993610
==== e(   1) =   -21.19631 eV ==== 
     psi = 0.476*[#   1]+0.476*[#   5]+0.014*[#   2]+0.014*[#   6]
    |psi|^2 = 0.982
==== e(   2) =   -14.18776 eV ==== 
     psi = 0.488*[#   2]+0.488*[#   6]+0.007*[#   1]+0.007*[#   5]
    |psi|^2 = 0.989
==== e(   3) =   -10.21288 eV ==== 
     psi = 0.240*[#   3]+0.240*[#   4]+0.240*[#   7]+0.240*[#   8]
    |psi|^2 = 0.962
==== e(   4) =   -10.21288 eV ==== 
     psi = 0.240*[#   3]+0.240*[#   4]+0.240*[#   7]+0.240*[#   8]
    |psi|^2 = 0.962
==== e(   5) =    -0.40882 eV ==== 
     psi = 0.008*[#   2]+0.008*[#   6]+0.002*[#   1]+0.002*[#   5]
    |psi|^2 = 0.019
==== e(   6) =     0.19691 eV ==== 
 
    |psi|^2 = 0.002
==== e(   7) =     0.29807 eV ==== 
     psi = 0.002*[#   3]+0.002*[#   4]+0.002*[#   7]+0.002*[#   8]
    |psi|^2 = 0.007
==== e(   8) =     0.29807 eV ==== 
     psi = 0.002*[#   3]+0.002*[#   4]+0.002*[#   7]+0.002*[#   8]
    |psi|^2 = 0.007

 k =   0.0000000000  0.0000000000  0.6235421268
==== e(   1) =   -21.17699 eV ==== 
     psi = 0.472*[#   1]+0.472*[#   5]+0.018*[#   2]+0.018*[#   6]
    |psi|^2 = 0.981
==== e(   2) =   -14.22759 eV ==== 
     psi = 0.486*[#   2]+0.486*[#   6]+0.009*[#   1]+0.009*[#   5]
    |psi|^2 = 0.989
==== e(   3) =   -10.18056 eV ==== 
     psi = 0.241*[#   3]+0.241*[#   4]+0.241*[#   7]+0.241*[#   8]
    |psi|^2 = 0.962
==== e(   4) =   -10.18056 eV ==== 
     psi = 0.241*[#   3]+0.241*[#   4]+0.241*[#   7]+0.241*[#   8]
    |psi|^2 = 0.962
==== e(   5) =    -0.37609 eV ==== 
     psi = 0.010*[#   2]+0.010*[#   6]+0.001*[#   1]+0.001*[#   5]
    |psi|^2 = 0.023
==== e(   6) =     0.23095 eV ==== 
     psi = 0.001*[#   2]+0.001*[#   6]
    |psi|^2 = 0.003
==== e(   7) =     0.33228 eV ==== 
     psi = 0.002*[#   3]+0.002*[#   4]+0.002*[#   7]+0.002*[#   8]
    |psi|^2 = 0.007
==== e(   8) =     0.33228 eV ==== 
     psi = 0.002*[#   3]+0.002*[#   4]+0.002*[#   7]+0.002*[#   8]
    |psi|^2 = 0.007

 k =   0.0000000000  0.0000000000  0.7014848927
==== e(   1) =   -21.15512 eV ==== 
     psi = 0.468*[#   1]+0.468*[#   5]+0.023*[#   2]+0.023*[#   6]
    |psi|^2 = 0.981
==== e(   2) =   -14.27235 eV ==== 
     psi = 0.483*[#   2]+0.483*[#   6]+0.011*[#   1]+0.011*[#   5]
    |psi|^2 = 0.989
==== e(   3) =   -10.14393 eV ==== 
     psi = 0.241*[#   3]+0.241*[#   4]+0.241*[#   7]+0.241*[#   8]
    |psi|^2 = 0.963
==== e(   4) =   -10.14393 eV ==== 
     psi = 0.241*[#   3]+0.241*[#   4]+0.241*[#   7]+0.241*[#   8]
    |psi|^2 = 0.963
==== e(   5) =    -0.33900 eV ==== 
     psi = 0.012*[#   2]+0.012*[#   6]+0.001*[#   1]+0.001*[#   5]
    |psi|^2 = 0.026
==== e(   6) =     0.26953 eV ==== 
     psi = 0.001*[#   2]+0.001*[#   6]
    |psi|^2 = 0.003
==== e(   7) =     0.37105 eV ==== 
     psi = 0.002*[#   3]+0.002*[#   4]+0.002*[#   7]+0.002*[#   8]
    |psi|^2 = 0.007
==== e(   8) =     0.37105 eV ==== 
     psi = 0.002*[#   3]+0.002*[#   4]+0.002*[#   7]+0.002*[#   8]
    |psi|^2 = 0.007

 k =   0.0000000000  0.0000000000  0.7794276586
==== e(   1) =   -21.13070 eV ==== 
     psi = 0.463*[#   1]+0.463*[#   5]+0.028*[#   2]+0.028*[#   6]
    |psi|^2 = 0.981
==== e(   2) =   -14.32189 eV ==== 
     psi = 0.481*[#   2]+0.481*[#   6]+0.013*[#   1]+0.013*[#   5]
    |psi|^2 = 0.989
==== e(   3) =   -10.10301 eV ==== 
     psi = 0.241*[#   3]+0.241*[#   4]+0.241*[#   7]+0.241*[#   8]
    |psi|^2 = 0.964
==== e(   4) =   -10.10301 eV ==== 
     psi = 0.241*[#   3]+0.241*[#   4]+0.241*[#   7]+0.241*[#   8]
    |psi|^2 = 0.964
==== e(   5) =    -0.29756 eV ==== 
     psi = 0.014*[#   2]+0.014*[#   6]
    |psi|^2 = 0.030
==== e(   6) =     0.31265 eV ==== 
     psi = 0.002*[#   2]+0.002*[#   6]
    |psi|^2 = 0.003
==== e(   7) =     0.41438 eV ==== 
     psi = 0.002*[#   3]+0.002*[#   4]+0.002*[#   7]+0.002*[#   8]
    |psi|^2 = 0.006
==== e(   8) =     0.41438 eV ==== 
     psi = 0.002*[#   3]+0.002*[#   4]+0.002*[#   7]+0.002*[#   8]
    |psi|^2 = 0.006

 k =   0.0000000000  0.0000000000  0.8573704244
==== e(   1) =   -21.10374 eV ==== 
     psi = 0.457*[#   1]+0.457*[#   5]+0.033*[#   2]+0.033*[#   6]
    |psi|^2 = 0.981
==== e(   2) =   -14.37608 eV ==== 
     psi = 0.478*[#   2]+0.478*[#   6]+0.016*[#   1]+0.016*[#   5]
    |psi|^2 = 0.988
==== e(   3) =   -10.05778 eV ==== 
     psi = 0.241*[#   3]+0.241*[#   4]+0.241*[#   7]+0.241*[#   8]
    |psi|^2 = 0.964
==== e(   4) =   -10.05778 eV ==== 
     psi = 0.241*[#   3]+0.241*[#   4]+0.241*[#   7]+0.241*[#   8]
    |psi|^2 = 0.964
==== e(   5) =    -0.25178 eV ==== 
     psi = 0.016*[#   2]+0.016*[#   6]
    |psi|^2 = 0.034
==== e(   6) =     0.36030 eV ==== 
     psi = 0.002*[#   2]+0.002*[#   6]
    |psi|^2 = 0.004
==== e(   7) =     0.46227 eV ==== 
     psi = 0.002*[#   3]+0.002*[#   4]+0.002*[#   7]+0.002*[#   8]
    |psi|^2 = 0.006
==== e(   8) =     0.46227 eV ==== 
     psi = 0.002*[#   3]+0.002*[#   4]+0.002*[#   7]+0.002*[#   8]
    |psi|^2 = 0.006

 k =   0.0000000000  0.0000000000  0.9353131903
==== e(   1) =   -21.07426 eV ==== 
     psi = 0.451*[#   1]+0.451*[#   5]+0.039*[#   2]+0.039*[#   6]
    |psi|^2 = 0.981
==== e(   2) =   -14.43475 eV ==== 
     psi = 0.476*[#   2]+0.476*[#   6]+0.019*[#   1]+0.019*[#   5]
    |psi|^2 = 0.988
==== e(   3) =   -10.00826 eV ==== 
     psi = 0.241*[#   3]+0.241*[#   4]+0.241*[#   7]+0.241*[#   8]
    |psi|^2 = 0.965
==== e(   4) =   -10.00826 eV ==== 
     psi = 0.241*[#   3]+0.241*[#   4]+0.241*[#   7]+0.241*[#   8]
    |psi|^2 = 0.965
==== e(   5) =    -0.20166 eV ==== 
     psi = 0.018*[#   2]+0.018*[#   6]
    |psi|^2 = 0.037
==== e(   6) =     0.41250 eV ==== 
     psi = 0.002*[#   2]+0.002*[#   6]
    |psi|^2 = 0.004
==== e(   7) =     0.51472 eV ==== 
     psi = 0.002*[#   3]+0.002*[#   4]+0.002*[#   7]+0.002*[#   8]
    |psi|^2 = 0.006
==== e(   8) =     0.51472 eV ==== 
     psi = 0.002*[#   3]+0.002*[#   4]+0.002*[#   7]+0.002*[#   8]
    |psi|^2 = 0.006

 k =   0.0000000000  0.0000000000  1.0132559561
==== e(   1) =   -21.04226 eV ==== 
     psi = 0.445*[#   1]+0.445*[#   5]+0.045*[#   2]+0.045*[#   6]
    |psi|^2 = 0.980
==== e(   2) =   -14.49776 eV ==== 
     psi = 0.473*[#   2]+0.473*[#   6]+0.022*[#   1]+0.022*[#   5]
    |psi|^2 = 0.988
==== e(   3) =    -9.95445 eV ==== 
     psi = 0.242*[#   3]+0.242*[#   4]+0.242*[#   7]+0.242*[#   8]
    |psi|^2 = 0.966
==== e(   4) =    -9.95445 eV ==== 
     psi = 0.242*[#   3]+0.242*[#   4]+0.242*[#   7]+0.242*[#   8]
    |psi|^2 = 0.966
==== e(   5) =    -0.14720 eV ==== 
     psi = 0.020*[#   2]+0.020*[#   6]
    |psi|^2 = 0.041
==== e(   6) =     0.46923 eV ==== 
     psi = 0.002*[#   2]+0.002*[#   6]
    |psi|^2 = 0.004
==== e(   7) =     0.57173 eV ==== 
     psi = 0.001*[#   3]+0.001*[#   4]+0.001*[#   7]+0.001*[#   8]
    |psi|^2 = 0.006
==== e(   8) =     0.57173 eV ==== 
     psi = 0.001*[#   3]+0.001*[#   4]+0.001*[#   7]+0.001*[#   8]
    |psi|^2 = 0.006

 k =   0.0000000000  0.0000000000  1.0911987220
==== e(   1) =   -21.00776 eV ==== 
     psi = 0.439*[#   1]+0.439*[#   5]+0.051*[#   2]+0.051*[#   6]
    |psi|^2 = 0.980
==== e(   2) =   -14.56491 eV ==== 
     psi = 0.469*[#   2]+0.469*[#   6]+0.025*[#   1]+0.025*[#   5]
    |psi|^2 = 0.988
==== e(   3) =    -9.89635 eV ==== 
     psi = 0.242*[#   3]+0.242*[#   4]+0.242*[#   7]+0.242*[#   8]
    |psi|^2 = 0.967
==== e(   4) =    -9.89635 eV ==== 
     psi = 0.242*[#   3]+0.242*[#   4]+0.242*[#   7]+0.242*[#   8]
    |psi|^2 = 0.967
==== e(   5) =    -0.08843 eV ==== 
     psi = 0.022*[#   2]+0.022*[#   6]
    |psi|^2 = 0.044
==== e(   6) =     0.53050 eV ==== 
     psi = 0.002*[#   2]+0.002*[#   6]
    |psi|^2 = 0.005
==== e(   7) =     0.63330 eV ==== 
     psi = 0.001*[#   3]+0.001*[#   4]+0.001*[#   7]+0.001*[#   8]
    |psi|^2 = 0.006
==== e(   8) =     0.63330 eV ==== 
     psi = 0.001*[#   3]+0.001*[#   4]+0.001*[#   7]+0.001*[#   8]
    |psi|^2 = 0.006

 k =   0.0000000000  0.0000000000  1.1691414878
==== e(   1) =   -20.97078 eV ==== 
     psi = 0.432*[#   1]+0.432*[#   5]+0.057*[#   2]+0.057*[#   6]
    |psi|^2 = 0.980
==== e(   2) =   -14.63605 eV ==== 
     psi = 0.466*[#   2]+0.466*[#   6]+0.028*[#   1]+0.028*[#   5]
    |psi|^2 = 0.988
==== e(   3) =    -9.83397 eV ==== 
     psi = 0.242*[#   3]+0.242*[#   4]+0.242*[#   7]+0.242*[#   8]
    |psi|^2 = 0.968
==== e(   4) =    -9.83397 eV ==== 
     psi = 0.242*[#   3]+0.242*[#   4]+0.242*[#   7]+0.242*[#   8]
    |psi|^2 = 0.968
==== e(   5) =    -0.02533 eV ==== 
     psi = 0.023*[#   2]+0.023*[#   6]
    |psi|^2 = 0.047
==== e(   6) =     0.59631 eV ==== 
     psi = 0.002*[#   2]+0.002*[#   6]
    |psi|^2 = 0.005
==== e(   7) =     0.69942 eV ==== 
     psi = 0.001*[#   3]+0.001*[#   4]+0.001*[#   7]+0.001*[#   8]
    |psi|^2 = 0.006
==== e(   8) =     0.69942 eV ==== 
     psi = 0.001*[#   3]+0.001*[#   4]+0.001*[#   7]+0.001*[#   8]
    |psi|^2 = 0.006

 k =   0.0000000000  0.0000000000  1.2470842537
==== e(   1) =   -20.93131 eV ==== 
     psi = 0.426*[#   1]+0.426*[#   5]+0.064*[#   2]+0.064*[#   6]
    |psi|^2 = 0.979
==== e(   2) =   -14.71097 eV ==== 
     psi = 0.463*[#   2]+0.463*[#   6]+0.031*[#   1]+0.031*[#   5]
    |psi|^2 = 0.988
==== e(   3) =    -9.76730 eV ==== 
     psi = 0.242*[#   3]+0.242*[#   4]+0.242*[#   7]+0.242*[#   8]
    |psi|^2 = 0.969
==== e(   4) =    -9.76730 eV ==== 
     psi = 0.242*[#   3]+0.242*[#   4]+0.242*[#   7]+0.242*[#   8]
    |psi|^2 = 0.969
==== e(   5) =     0.04207 eV ==== 
     psi = 0.025*[#   2]+0.025*[#   6]
    |psi|^2 = 0.050
==== e(   6) =     0.66665 eV ==== 
     psi = 0.003*[#   2]+0.003*[#   6]
    |psi|^2 = 0.005
==== e(   7) =     0.77010 eV ==== 
     psi = 0.001*[#   3]+0.001*[#   4]+0.001*[#   7]+0.001*[#   8]
    |psi|^2 = 0.005
==== e(   8) =     0.77010 eV ==== 
     psi = 0.001*[#   3]+0.001*[#   4]+0.001*[#   7]+0.001*[#   8]
    |psi|^2 = 0.005

 k =   0.0000000000  0.0000000000  1.3250270195
==== e(   1) =   -20.88939 eV ==== 
     psi = 0.419*[#   1]+0.419*[#   5]+0.071*[#   2]+0.071*[#   6]
    |psi|^2 = 0.979
==== e(   2) =   -14.78950 eV ==== 
     psi = 0.459*[#   2]+0.459*[#   6]+0.035*[#   1]+0.035*[#   5]
    |psi|^2 = 0.988
==== e(   3) =    -9.69637 eV ==== 
     psi = 0.243*[#   3]+0.243*[#   4]+0.243*[#   7]+0.243*[#   8]
    |psi|^2 = 0.971
==== e(   4) =    -9.69637 eV ==== 
     psi = 0.243*[#   3]+0.243*[#   4]+0.243*[#   7]+0.243*[#   8]
    |psi|^2 = 0.971
==== e(   5) =     0.11377 eV ==== 
     psi = 0.026*[#   2]+0.026*[#   6]
    |psi|^2 = 0.053
==== e(   6) =     0.74153 eV ==== 
     psi = 0.003*[#   2]+0.003*[#   6]
    |psi|^2 = 0.005
==== e(   7) =     0.84533 eV ==== 
     psi = 0.001*[#   3]+0.001*[#   4]+0.001*[#   7]+0.001*[#   8]
    |psi|^2 = 0.005
==== e(   8) =     0.84533 eV ==== 
     psi = 0.001*[#   3]+0.001*[#   4]+0.001*[#   7]+0.001*[#   8]
    |psi|^2 = 0.005

 k =   0.0000000000  0.0000000000  1.4029697854
==== e(   1) =   -20.84502 eV ==== 
     psi = 0.412*[#   1]+0.412*[#   5]+0.078*[#   2]+0.078*[#   6]
    |psi|^2 = 0.979
==== e(   2) =   -14.87145 eV ==== 
     psi = 0.455*[#   2]+0.455*[#   6]+0.039*[#   1]+0.039*[#   5]
    |psi|^2 = 0.988
==== e(   3) =    -9.62116 eV ==== 
     psi = 0.243*[#   3]+0.243*[#   4]+0.243*[#   7]+0.243*[#   8]
    |psi|^2 = 0.972
==== e(   4) =    -9.62116 eV ==== 
     psi = 0.243*[#   3]+0.243*[#   4]+0.243*[#   7]+0.243*[#   8]
    |psi|^2 = 0.972
==== e(   5) =     0.18975 eV ==== 
     psi = 0.027*[#   2]+0.027*[#   6]
    |psi|^2 = 0.055
==== e(   6) =     0.82095 eV ==== 
     psi = 0.003*[#   2]+0.003*[#   6]
    |psi|^2 = 0.005
==== e(   7) =     0.92511 eV ==== 
     psi = 0.001*[#   3]+0.001*[#   4]+0.001*[#   7]+0.001*[#   8]
    |psi|^2 = 0.005
==== e(   8) =     0.92511 eV ==== 
     psi = 0.001*[#   3]+0.001*[#   4]+0.001*[#   7]+0.001*[#   8]
    |psi|^2 = 0.005

 k =   0.0000000000  0.0000000000  1.4809125513
==== e(   1) =   -20.79823 eV ==== 
     psi = 0.404*[#   1]+0.404*[#   5]+0.085*[#   2]+0.085*[#   6]
    |psi|^2 = 0.978
==== e(   2) =   -14.95662 eV ==== 
     psi = 0.451*[#   2]+0.451*[#   6]+0.043*[#   1]+0.043*[#   5]
    |psi|^2 = 0.988
==== e(   3) =    -9.54169 eV ==== 
     psi = 0.243*[#   3]+0.243*[#   4]+0.243*[#   7]+0.243*[#   8]
    |psi|^2 = 0.973
==== e(   4) =    -9.54169 eV ==== 
     psi = 0.243*[#   3]+0.243*[#   4]+0.243*[#   7]+0.243*[#   8]
    |psi|^2 = 0.973
==== e(   5) =     0.27001 eV ==== 
     psi = 0.028*[#   2]+0.028*[#   6]
    |psi|^2 = 0.057
==== e(   6) =     0.90490 eV ==== 
     psi = 0.003*[#   2]+0.003*[#   6]
    |psi|^2 = 0.005
==== e(   7) =     1.00944 eV ==== 
     psi = 0.001*[#   3]+0.001*[#   4]+0.001*[#   7]+0.001*[#   8]
    |psi|^2 = 0.005
==== e(   8) =     1.00944 eV ==== 
     psi = 0.001*[#   3]+0.001*[#   4]+0.001*[#   7]+0.001*[#   8]
    |psi|^2 = 0.005

 k =   0.0000000000  0.0000000000  1.5588553171
==== e(   1) =   -20.74903 eV ==== 
     psi = 0.397*[#   1]+0.397*[#   5]+0.092*[#   2]+0.092*[#   6]
    |psi|^2 = 0.978
==== e(   2) =   -15.04484 eV ==== 
     psi = 0.447*[#   2]+0.447*[#   6]+0.046*[#   1]+0.046*[#   5]
    |psi|^2 = 0.988
==== e(   3) =    -9.45797 eV ==== 
     psi = 0.244*[#   3]+0.244*[#   4]+0.244*[#   7]+0.244*[#   8]
    |psi|^2 = 0.974
==== e(   4) =    -9.45797 eV ==== 
     psi = 0.244*[#   3]+0.244*[#   4]+0.244*[#   7]+0.244*[#   8]
    |psi|^2 = 0.974
==== e(   5) =     0.35453 eV ==== 
     psi = 0.029*[#   2]+0.029*[#   6]
    |psi|^2 = 0.058
==== e(   6) =     0.99339 eV ==== 
     psi = 0.003*[#   2]+0.003*[#   6]
    |psi|^2 = 0.005
==== e(   7) =     1.09828 eV ==== 
     psi = 0.001*[#   3]+0.001*[#   4]+0.001*[#   7]+0.001*[#   8]
    |psi|^2 = 0.005
==== e(   8) =     1.09828 eV ==== 
     psi = 0.001*[#   3]+0.001*[#   4]+0.001*[#   7]+0.001*[#   8]
    |psi|^2 = 0.005

 k =   0.0000000000  0.0000000000  1.6367980830
==== e(   1) =   -20.69745 eV ==== 
     psi = 0.390*[#   1]+0.390*[#   5]+0.099*[#   2]+0.099*[#   6]
    |psi|^2 = 0.978
==== e(   2) =   -15.13590 eV ==== 
     psi = 0.443*[#   2]+0.443*[#   6]+0.050*[#   1]+0.050*[#   5]
    |psi|^2 = 0.987
==== e(   3) =    -9.36999 eV ==== 
     psi = 0.244*[#   3]+0.244*[#   4]+0.244*[#   7]+0.244*[#   8]
    |psi|^2 = 0.975
==== e(   4) =    -9.36999 eV ==== 
     psi = 0.244*[#   3]+0.244*[#   4]+0.244*[#   7]+0.244*[#   8]
    |psi|^2 = 0.975
==== e(   5) =     0.44330 eV ==== 
     psi = 0.029*[#   2]+0.029*[#   6]
    |psi|^2 = 0.059
==== e(   6) =     1.08641 eV ==== 
     psi = 0.003*[#   2]+0.003*[#   6]
    |psi|^2 = 0.005
==== e(   7) =     1.19162 eV ==== 
     psi = 0.001*[#   3]+0.001*[#   4]+0.001*[#   7]+0.001*[#   8]
    |psi|^2 = 0.005
==== e(   8) =     1.19162 eV ==== 
     psi = 0.001*[#   3]+0.001*[#   4]+0.001*[#   7]+0.001*[#   8]
    |psi|^2 = 0.005

 k =   0.0000000000  0.0000000000  1.7147408488
==== e(   1) =   -20.64351 eV ==== 
     psi = 0.382*[#   1]+0.382*[#   5]+0.106*[#   2]+0.106*[#   6]
    |psi|^2 = 0.977
==== e(   2) =   -15.22963 eV ==== 
     psi = 0.439*[#   2]+0.439*[#   6]+0.055*[#   1]+0.055*[#   5]
    |psi|^2 = 0.987
==== e(   3) =    -9.27778 eV ==== 
     psi = 0.244*[#   3]+0.244*[#   4]+0.244*[#   7]+0.244*[#   8]
    |psi|^2 = 0.977
==== e(   4) =    -9.27778 eV ==== 
     psi = 0.244*[#   3]+0.244*[#   4]+0.244*[#   7]+0.244*[#   8]
    |psi|^2 = 0.977
==== e(   5) =     0.53629 eV ==== 
     psi = 0.029*[#   2]+0.029*[#   6]
    |psi|^2 = 0.059
==== e(   6) =     1.18396 eV ==== 
     psi = 0.003*[#   2]+0.003*[#   6]
    |psi|^2 = 0.005
==== e(   7) =     1.28935 eV ==== 
     psi = 0.001*[#   3]+0.001*[#   4]+0.001*[#   7]+0.001*[#   8]
    |psi|^2 = 0.005
==== e(   8) =     1.28935 eV ==== 
     psi = 0.001*[#   3]+0.001*[#   4]+0.001*[#   7]+0.001*[#   8]
    |psi|^2 = 0.005

 k =   0.0000000000  0.0000000000  1.7926836147
==== e(   1) =   -20.58722 eV ==== 
     psi = 0.375*[#   1]+0.375*[#   5]+0.114*[#   2]+0.114*[#   6]
    |psi|^2 = 0.977
==== e(   2) =   -15.32583 eV ==== 
     psi = 0.435*[#   2]+0.435*[#   6]+0.059*[#   1]+0.059*[#   5]
    |psi|^2 = 0.987
==== e(   3) =    -9.18132 eV ==== 
     psi = 0.245*[#   3]+0.245*[#   4]+0.245*[#   7]+0.245*[#   8]
    |psi|^2 = 0.978
==== e(   4) =    -9.18132 eV ==== 
     psi = 0.245*[#   3]+0.245*[#   4]+0.245*[#   7]+0.245*[#   8]
    |psi|^2 = 0.978
==== e(   5) =     0.63350 eV ==== 
     psi = 0.029*[#   2]+0.029*[#   6]
    |psi|^2 = 0.059
==== e(   6) =     1.28605 eV ==== 
     psi = 0.003*[#   2]+0.003*[#   6]
    |psi|^2 = 0.005
==== e(   7) =     1.39088 eV ==== 
     psi = 0.002*[#   3]+0.002*[#   4]+0.002*[#   7]+0.002*[#   8]
    |psi|^2 = 0.010
==== e(   8) =     1.39088 eV ==== 
     psi = 0.002*[#   3]+0.002*[#   4]+0.002*[#   7]+0.002*[#   8]
    |psi|^2 = 0.010

 k =   0.0000000000  0.0000000000  1.8706263805
==== e(   1) =   -20.52862 eV ==== 
     psi = 0.368*[#   1]+0.368*[#   5]+0.121*[#   2]+0.121*[#   6]
    |psi|^2 = 0.977
==== e(   2) =   -15.42431 eV ==== 
     psi = 0.430*[#   2]+0.430*[#   6]+0.063*[#   1]+0.063*[#   5]
    |psi|^2 = 0.987
==== e(   3) =    -9.08065 eV ==== 
     psi = 0.245*[#   3]+0.245*[#   4]+0.245*[#   7]+0.245*[#   8]
    |psi|^2 = 0.979
==== e(   4) =    -9.08065 eV ==== 
     psi = 0.245*[#   3]+0.245*[#   4]+0.245*[#   7]+0.245*[#   8]
    |psi|^2 = 0.979
==== e(   5) =     0.73490 eV ==== 
     psi = 0.029*[#   2]+0.029*[#   6]
    |psi|^2 = 0.059
==== e(   6) =     1.39267 eV ==== 
     psi = 0.002*[#   2]+0.002*[#   6]
    |psi|^2 = 0.005
==== e(   7) =     1.45195 eV ==== 
     psi = 0.182*[#   3]+0.182*[#   4]+0.182*[#   7]+0.182*[#   8]
    |psi|^2 = 0.729
==== e(   8) =     1.45195 eV ==== 
     psi = 0.182*[#   3]+0.182*[#   4]+0.182*[#   7]+0.182*[#   8]
    |psi|^2 = 0.729

 k =   0.0000000000  0.0000000000  1.9485691464
==== e(   1) =   -20.46773 eV ==== 
     psi = 0.360*[#   1]+0.360*[#   5]+0.128*[#   2]+0.128*[#   6]
    |psi|^2 = 0.977
==== e(   2) =   -15.52490 eV ==== 
     psi = 0.426*[#   2]+0.426*[#   6]+0.067*[#   1]+0.067*[#   5]
    |psi|^2 = 0.987
==== e(   3) =    -8.97576 eV ==== 
     psi = 0.245*[#   3]+0.245*[#   4]+0.245*[#   7]+0.245*[#   8]
    |psi|^2 = 0.981
==== e(   4) =    -8.97576 eV ==== 
     psi = 0.245*[#   3]+0.245*[#   4]+0.245*[#   7]+0.245*[#   8]
    |psi|^2 = 0.981
==== e(   5) =     0.84046 eV ==== 
     psi = 0.028*[#   2]+0.028*[#   6]
    |psi|^2 = 0.058
==== e(   6) =     1.19235 eV ==== 
     psi = 0.239*[#   3]+0.239*[#   4]+0.239*[#   7]+0.239*[#   8]
    |psi|^2 = 0.957
==== e(   7) =     1.19235 eV ==== 
     psi = 0.239*[#   3]+0.239*[#   4]+0.239*[#   7]+0.239*[#   8]
    |psi|^2 = 0.957
==== e(   8) =     1.50383 eV ==== 
     psi = 0.002*[#   2]+0.002*[#   6]
    |psi|^2 = 0.005

 k =   0.0000000000  0.0000000000  2.0265119122
==== e(   1) =   -20.40457 eV ==== 
     psi = 0.353*[#   1]+0.353*[#   5]+0.136*[#   2]+0.136*[#   6]
    |psi|^2 = 0.976
==== e(   2) =   -15.62743 eV ==== 
     psi = 0.422*[#   2]+0.422*[#   6]+0.072*[#   1]+0.072*[#   5]
    |psi|^2 = 0.987
==== e(   3) =    -8.86666 eV ==== 
     psi = 0.245*[#   3]+0.245*[#   4]+0.245*[#   7]+0.245*[#   8]
    |psi|^2 = 0.982
==== e(   4) =    -8.86666 eV ==== 
     psi = 0.245*[#   3]+0.245*[#   4]+0.245*[#   7]+0.245*[#   8]
    |psi|^2 = 0.982
==== e(   5) =     0.92007 eV ==== 
     psi = 0.241*[#   3]+0.241*[#   4]+0.241*[#   7]+0.241*[#   8]
    |psi|^2 = 0.962
==== e(   6) =     0.92007 eV ==== 
     psi = 0.241*[#   3]+0.241*[#   4]+0.241*[#   7]+0.241*[#   8]
    |psi|^2 = 0.962
==== e(   7) =     0.95017 eV ==== 
     psi = 0.027*[#   2]+0.027*[#   6]
    |psi|^2 = 0.057
==== e(   8) =     1.61951 eV ==== 
     psi = 0.002*[#   2]+0.002*[#   6]
    |psi|^2 = 0.005

 k =   0.0000000000  0.0000000000  2.1044546781
==== e(   1) =   -20.33918 eV ==== 
     psi = 0.345*[#   1]+0.345*[#   5]+0.143*[#   2]+0.143*[#   6]
    |psi|^2 = 0.976
==== e(   2) =   -15.73170 eV ==== 
     psi = 0.417*[#   2]+0.417*[#   6]+0.076*[#   1]+0.076*[#   5]
    |psi|^2 = 0.987
==== e(   3) =    -8.75337 eV ==== 
     psi = 0.246*[#   3]+0.246*[#   4]+0.246*[#   7]+0.246*[#   8]
    |psi|^2 = 0.983
==== e(   4) =    -8.75337 eV ==== 
     psi = 0.246*[#   3]+0.246*[#   4]+0.246*[#   7]+0.246*[#   8]
    |psi|^2 = 0.983
==== e(   5) =     0.64782 eV ==== 
     psi = 0.241*[#   3]+0.241*[#   4]+0.241*[#   7]+0.241*[#   8]
    |psi|^2 = 0.964
==== e(   6) =     0.64782 eV ==== 
     psi = 0.241*[#   3]+0.241*[#   4]+0.241*[#   7]+0.241*[#   8]
    |psi|^2 = 0.964
==== e(   7) =     1.06399 eV ==== 
     psi = 0.027*[#   2]+0.027*[#   6]
    |psi|^2 = 0.055
==== e(   8) =     1.73972 eV ==== 
     psi = 0.002*[#   2]+0.002*[#   6]
    |psi|^2 = 0.004

 k =   0.0000000000  0.0000000000  2.1823974440
==== e(   1) =   -20.27158 eV ==== 
     psi = 0.338*[#   1]+0.338*[#   5]+0.150*[#   2]+0.150*[#   6]
    |psi|^2 = 0.976
==== e(   2) =   -15.83756 eV ==== 
     psi = 0.413*[#   2]+0.413*[#   6]+0.081*[#   1]+0.081*[#   5]
    |psi|^2 = 0.986
==== e(   3) =    -8.63590 eV ==== 
     psi = 0.246*[#   3]+0.246*[#   4]+0.246*[#   7]+0.246*[#   8]
    |psi|^2 = 0.984
==== e(   4) =    -8.63590 eV ==== 
     psi = 0.246*[#   3]+0.246*[#   4]+0.246*[#   7]+0.246*[#   8]
    |psi|^2 = 0.984
==== e(   5) =     0.37639 eV ==== 
     psi = 0.242*[#   3]+0.242*[#   4]+0.242*[#   7]+0.242*[#   8]
    |psi|^2 = 0.966
==== e(   6) =     0.37639 eV ==== 
     psi = 0.242*[#   3]+0.242*[#   4]+0.242*[#   7]+0.242*[#   8]
    |psi|^2 = 0.966
==== e(   7) =     1.18189 eV ==== 
     psi = 0.026*[#   2]+0.026*[#   6]
    |psi|^2 = 0.053
==== e(   8) =     1.86446 eV ==== 
     psi = 0.002*[#   2]+0.002*[#   6]
    |psi|^2 = 0.004

 k =   0.0000000000  0.0000000000  2.2603402098
==== e(   1) =   -20.20180 eV ==== 
     psi = 0.330*[#   1]+0.330*[#   5]+0.157*[#   2]+0.157*[#   6]
    |psi|^2 = 0.975
==== e(   2) =   -15.94484 eV ==== 
     psi = 0.408*[#   2]+0.408*[#   6]+0.085*[#   1]+0.085*[#   5]
    |psi|^2 = 0.986
==== e(   3) =    -8.51426 eV ==== 
     psi = 0.246*[#   3]+0.246*[#   4]+0.246*[#   7]+0.246*[#   8]
    |psi|^2 = 0.985
==== e(   4) =    -8.51426 eV ==== 
     psi = 0.246*[#   3]+0.246*[#   4]+0.246*[#   7]+0.246*[#   8]
    |psi|^2 = 0.985
==== e(   5) =     0.10617 eV ==== 
     psi = 0.242*[#   3]+0.242*[#   4]+0.242*[#   7]+0.242*[#   8]
    |psi|^2 = 0.968
==== e(   6) =     0.10617 eV ==== 
     psi = 0.242*[#   3]+0.242*[#   4]+0.242*[#   7]+0.242*[#   8]
    |psi|^2 = 0.968
==== e(   7) =     1.30384 eV ==== 
     psi = 0.025*[#   2]+0.025*[#   6]
    |psi|^2 = 0.051
==== e(   8) =     1.99373 eV ==== 
     psi = 0.002*[#   2]+0.002*[#   6]
    |psi|^2 = 0.004

 k =   0.0000000000  0.0000000000  2.3382829757
==== e(   1) =   -20.12987 eV ==== 
     psi = 0.323*[#   1]+0.323*[#   5]+0.165*[#   2]+0.165*[#   6]
    |psi|^2 = 0.975
==== e(   2) =   -16.05337 eV ==== 
     psi = 0.403*[#   2]+0.403*[#   6]+0.090*[#   1]+0.090*[#   5]
    |psi|^2 = 0.986
==== e(   3) =    -8.38847 eV ==== 
     psi = 0.247*[#   3]+0.247*[#   4]+0.247*[#   7]+0.247*[#   8]
    |psi|^2 = 0.987
==== e(   4) =    -8.38847 eV ==== 
     psi = 0.247*[#   3]+0.247*[#   4]+0.247*[#   7]+0.247*[#   8]
    |psi|^2 = 0.987
==== e(   5) =    -0.16256 eV ==== 
     psi = 0.243*[#   3]+0.243*[#   4]+0.243*[#   7]+0.243*[#   8]
    |psi|^2 = 0.970
==== e(   6) =    -0.16256 eV ==== 
     psi = 0.243*[#   3]+0.243*[#   4]+0.243*[#   7]+0.243*[#   8]
    |psi|^2 = 0.970
==== e(   7) =     1.42981 eV ==== 
     psi = 0.023*[#   2]+0.023*[#   6]
    |psi|^2 = 0.048
==== e(   8) =     2.12753 eV ==== 
     psi = 0.002*[#   2]+0.002*[#   6]
    |psi|^2 = 0.003

 k =   0.0000000000  0.0000000000  2.4162257415
==== e(   1) =   -20.05585 eV ==== 
     psi = 0.316*[#   1]+0.316*[#   5]+0.172*[#   2]+0.172*[#   6]
    |psi|^2 = 0.975
==== e(   2) =   -16.16300 eV ==== 
     psi = 0.399*[#   2]+0.399*[#   6]+0.094*[#   1]+0.094*[#   5]
    |psi|^2 = 0.986
==== e(   3) =    -8.25854 eV ==== 
     psi = 0.247*[#   3]+0.247*[#   4]+0.247*[#   7]+0.247*[#   8]
    |psi|^2 = 0.988
==== e(   4) =    -8.25854 eV ==== 
     psi = 0.247*[#   3]+0.247*[#   4]+0.247*[#   7]+0.247*[#   8]
    |psi|^2 = 0.988
==== e(   5) =    -0.42954 eV ==== 
     psi = 0.243*[#   3]+0.243*[#   4]+0.243*[#   7]+0.243*[#   8]
    |psi|^2 = 0.972
==== e(   6) =    -0.42954 eV ==== 
     psi = 0.243*[#   3]+0.243*[#   4]+0.243*[#   7]+0.243*[#   8]
    |psi|^2 = 0.972
==== e(   7) =     1.55973 eV ==== 
     psi = 0.022*[#   2]+0.022*[#   6]
    |psi|^2 = 0.046
==== e(   8) =     2.26584 eV ==== 
     psi = 0.002*[#   2]+0.002*[#   6]
    |psi|^2 = 0.003

 k =   0.0000000000  0.0000000000  2.4941685074
==== e(   1) =   -19.97976 eV ==== 
     psi = 0.308*[#   1]+0.308*[#   5]+0.179*[#   2]+0.179*[#   6]
    |psi|^2 = 0.975
==== e(   2) =   -16.27357 eV ==== 
     psi = 0.394*[#   2]+0.394*[#   6]+0.099*[#   1]+0.099*[#   5]
    |psi|^2 = 0.985
==== e(   3) =    -8.12449 eV ==== 
     psi = 0.247*[#   3]+0.247*[#   4]+0.247*[#   7]+0.247*[#   8]
    |psi|^2 = 0.989
==== e(   4) =    -8.12449 eV ==== 
     psi = 0.247*[#   3]+0.247*[#   4]+0.247*[#   7]+0.247*[#   8]
    |psi|^2 = 0.989
==== e(   5) =    -0.69455 eV ==== 
     psi = 0.243*[#   3]+0.243*[#   4]+0.243*[#   7]+0.243*[#   8]
    |psi|^2 = 0.974
==== e(   6) =    -0.69455 eV ==== 
     psi = 0.243*[#   3]+0.243*[#   4]+0.243*[#   7]+0.243*[#   8]
    |psi|^2 = 0.974
==== e(   7) =     1.69357 eV ==== 
     psi = 0.021*[#   2]+0.021*[#   6]
    |psi|^2 = 0.043
==== e(   8) =     2.40869 eV ==== 
     psi = 0.001*[#   2]+0.001*[#   6]
    |psi|^2 = 0.003

 k =   0.0000000000  0.0000000000  2.5721112732
==== e(   1) =   -19.90163 eV ==== 
     psi = 0.301*[#   1]+0.301*[#   5]+0.186*[#   2]+0.186*[#   6]
    |psi|^2 = 0.975
==== e(   2) =   -16.38493 eV ==== 
     psi = 0.389*[#   2]+0.389*[#   6]+0.104*[#   1]+0.104*[#   5]
    |psi|^2 = 0.985
==== e(   3) =    -7.98634 eV ==== 
     psi = 0.247*[#   3]+0.247*[#   4]+0.247*[#   7]+0.247*[#   8]
    |psi|^2 = 0.990
==== e(   4) =    -7.98634 eV ==== 
     psi = 0.247*[#   3]+0.247*[#   4]+0.247*[#   7]+0.247*[#   8]
    |psi|^2 = 0.990
==== e(   5) =    -0.95738 eV ==== 
     psi = 0.244*[#   3]+0.244*[#   4]+0.244*[#   7]+0.244*[#   8]
    |psi|^2 = 0.976
==== e(   6) =    -0.95738 eV ==== 
     psi = 0.244*[#   3]+0.244*[#   4]+0.244*[#   7]+0.244*[#   8]
    |psi|^2 = 0.976
==== e(   7) =     1.83127 eV ==== 
     psi = 0.019*[#   2]+0.019*[#   6]
    |psi|^2 = 0.040
==== e(   8) =     2.55605 eV ==== 
     psi = 0.001*[#   2]+0.001*[#   6]
    |psi|^2 = 0.003

 k =   0.0000000000  0.0000000000  2.6500540391
==== e(   1) =   -19.82152 eV ==== 
     psi = 0.294*[#   1]+0.294*[#   5]+0.193*[#   2]+0.193*[#   6]
    |psi|^2 = 0.975
==== e(   2) =   -16.49693 eV ==== 
     psi = 0.384*[#   2]+0.384*[#   6]+0.108*[#   1]+0.108*[#   5]
    |psi|^2 = 0.985
==== e(   3) =    -7.84412 eV ==== 
     psi = 0.248*[#   3]+0.248*[#   4]+0.248*[#   7]+0.248*[#   8]
    |psi|^2 = 0.991
==== e(   4) =    -7.84412 eV ==== 
     psi = 0.248*[#   3]+0.248*[#   4]+0.248*[#   7]+0.248*[#   8]
    |psi|^2 = 0.991
==== e(   5) =    -1.21786 eV ==== 
     psi = 0.244*[#   3]+0.244*[#   4]+0.244*[#   7]+0.244*[#   8]
    |psi|^2 = 0.977
==== e(   6) =    -1.21786 eV ==== 
     psi = 0.244*[#   3]+0.244*[#   4]+0.244*[#   7]+0.244*[#   8]
    |psi|^2 = 0.977
==== e(   7) =     1.97277 eV ==== 
     psi = 0.018*[#   2]+0.018*[#   6]
    |psi|^2 = 0.036
==== e(   8) =     2.70792 eV ==== 
     psi = 0.001*[#   2]+0.001*[#   6]
    |psi|^2 = 0.002

 k =   0.0000000000  0.0000000000  2.7279968049
==== e(   1) =   -19.73946 eV ==== 
     psi = 0.287*[#   1]+0.287*[#   5]+0.200*[#   2]+0.200*[#   6]
    |psi|^2 = 0.975
==== e(   2) =   -16.60942 eV ==== 
     psi = 0.379*[#   2]+0.379*[#   6]+0.113*[#   1]+0.113*[#   5]
    |psi|^2 = 0.985
==== e(   3) =    -7.69785 eV ==== 
     psi = 0.248*[#   3]+0.248*[#   4]+0.248*[#   7]+0.248*[#   8]
    |psi|^2 = 0.992
==== e(   4) =    -7.69785 eV ==== 
     psi = 0.248*[#   3]+0.248*[#   4]+0.248*[#   7]+0.248*[#   8]
    |psi|^2 = 0.992
==== e(   5) =    -1.47581 eV ==== 
     psi = 0.245*[#   3]+0.245*[#   4]+0.245*[#   7]+0.245*[#   8]
    |psi|^2 = 0.979
==== e(   6) =    -1.47581 eV ==== 
     psi = 0.245*[#   3]+0.245*[#   4]+0.245*[#   7]+0.245*[#   8]
    |psi|^2 = 0.979
==== e(   7) =     2.11799 eV ==== 
     psi = 0.016*[#   2]+0.016*[#   6]
    |psi|^2 = 0.033
==== e(   8) =     2.86432 eV ==== 
 
    |psi|^2 = 0.002

 k =   0.0000000000  0.0000000000  2.8059395708
==== e(   1) =   -19.65551 eV ==== 
     psi = 0.280*[#   1]+0.280*[#   5]+0.207*[#   2]+0.207*[#   6]
    |psi|^2 = 0.975
==== e(   2) =   -16.72227 eV ==== 
     psi = 0.374*[#   2]+0.374*[#   6]+0.118*[#   1]+0.118*[#   5]
    |psi|^2 = 0.984
==== e(   3) =    -7.54756 eV ==== 
     psi = 0.248*[#   3]+0.248*[#   4]+0.248*[#   7]+0.248*[#   8]
    |psi|^2 = 0.992
==== e(   4) =    -7.54756 eV ==== 
     psi = 0.248*[#   3]+0.248*[#   4]+0.248*[#   7]+0.248*[#   8]
    |psi|^2 = 0.992
==== e(   5) =    -1.73108 eV ==== 
     psi = 0.245*[#   3]+0.245*[#   4]+0.245*[#   7]+0.245*[#   8]
    |psi|^2 = 0.981
==== e(   6) =    -1.73108 eV ==== 
     psi = 0.245*[#   3]+0.245*[#   4]+0.245*[#   7]+0.245*[#   8]
    |psi|^2 = 0.981
==== e(   7) =     2.26685 eV ==== 
     psi = 0.015*[#   2]+0.015*[#   6]
    |psi|^2 = 0.030
==== e(   8) =     3.02522 eV ==== 
 
    |psi|^2 = 0.002

 k =   0.0000000000  0.0000000000  2.8838823367
==== e(   1) =   -19.56972 eV ==== 
     psi = 0.273*[#   1]+0.273*[#   5]+0.214*[#   2]+0.214*[#   6]
    |psi|^2 = 0.975
==== e(   2) =   -16.83534 eV ==== 
     psi = 0.369*[#   2]+0.369*[#   6]+0.123*[#   1]+0.123*[#   5]
    |psi|^2 = 0.984
==== e(   3) =    -7.39330 eV ==== 
     psi = 0.248*[#   3]+0.248*[#   4]+0.248*[#   7]+0.248*[#   8]
    |psi|^2 = 0.993
==== e(   4) =    -7.39330 eV ==== 
     psi = 0.248*[#   3]+0.248*[#   4]+0.248*[#   7]+0.248*[#   8]
    |psi|^2 = 0.993
==== e(   5) =    -1.98352 eV ==== 
     psi = 0.246*[#   3]+0.246*[#   4]+0.246*[#   7]+0.246*[#   8]
    |psi|^2 = 0.982
==== e(   6) =    -1.98352 eV ==== 
     psi = 0.246*[#   3]+0.246*[#   4]+0.246*[#   7]+0.246*[#   8]
    |psi|^2 = 0.982
==== e(   7) =     2.41926 eV ==== 
     psi = 0.013*[#   2]+0.013*[#   6]
    |psi|^2 = 0.027
==== e(   8) =     3.19064 eV ==== 
 
    |psi|^2 = 0.001

 k =   0.0000000000  0.0000000000  2.9618251025
==== e(   1) =   -19.48215 eV ==== 
     psi = 0.266*[#   1]+0.266*[#   5]+0.221*[#   2]+0.221*[#   6]
    |psi|^2 = 0.975
==== e(   2) =   -16.94848 eV ==== 
     psi = 0.364*[#   2]+0.364*[#   6]+0.128*[#   1]+0.128*[#   5]
    |psi|^2 = 0.984
==== e(   3) =    -7.23511 eV ==== 
     psi = 0.248*[#   3]+0.248*[#   4]+0.248*[#   7]+0.248*[#   8]
    |psi|^2 = 0.994
==== e(   4) =    -7.23511 eV ==== 
     psi = 0.248*[#   3]+0.248*[#   4]+0.248*[#   7]+0.248*[#   8]
    |psi|^2 = 0.994
==== e(   5) =    -2.23297 eV ==== 
     psi = 0.246*[#   3]+0.246*[#   4]+0.246*[#   7]+0.246*[#   8]
    |psi|^2 = 0.984
==== e(   6) =    -2.23297 eV ==== 
     psi = 0.246*[#   3]+0.246*[#   4]+0.246*[#   7]+0.246*[#   8]
    |psi|^2 = 0.984
==== e(   7) =     2.57510 eV ==== 
     psi = 0.012*[#   2]+0.012*[#   6]
    |psi|^2 = 0.024
==== e(   8) =     3.36056 eV ==== 
 
    |psi|^2 = 0.001

 k =   0.0000000000  0.0000000000  3.0397678684
==== e(   1) =   -19.39286 eV ==== 
     psi = 0.260*[#   1]+0.260*[#   5]+0.228*[#   2]+0.228*[#   6]
    |psi|^2 = 0.975
==== e(   2) =   -17.06157 eV ==== 
     psi = 0.359*[#   2]+0.359*[#   6]+0.133*[#   1]+0.133*[#   5]
    |psi|^2 = 0.983
==== e(   3) =    -7.07304 eV ==== 
     psi = 0.249*[#   3]+0.249*[#   4]+0.249*[#   7]+0.249*[#   8]
    |psi|^2 = 0.994
==== e(   4) =    -7.07304 eV ==== 
     psi = 0.249*[#   3]+0.249*[#   4]+0.249*[#   7]+0.249*[#   8]
    |psi|^2 = 0.994
==== e(   5) =    -2.47930 eV ==== 
     psi = 0.246*[#   3]+0.246*[#   4]+0.246*[#   7]+0.246*[#   8]
    |psi|^2 = 0.985
==== e(   6) =    -2.47930 eV ==== 
     psi = 0.246*[#   3]+0.246*[#   4]+0.246*[#   7]+0.246*[#   8]
    |psi|^2 = 0.985
==== e(   7) =     2.73426 eV ==== 
     psi = 0.010*[#   2]+0.010*[#   6]
    |psi|^2 = 0.022
==== e(   8) =     3.53498 eV ==== 
 
    |psi|^2 = 0.001

 k =   0.0000000000  0.0000000000  3.1177106342
==== e(   1) =   -19.30193 eV ==== 
     psi = 0.253*[#   1]+0.253*[#   5]+0.235*[#   2]+0.235*[#   6]
    |psi|^2 = 0.975
==== e(   2) =   -17.17445 eV ==== 
     psi = 0.354*[#   2]+0.354*[#   6]+0.138*[#   1]+0.138*[#   5]
    |psi|^2 = 0.983
==== e(   3) =    -6.90717 eV ==== 
     psi = 0.249*[#   3]+0.249*[#   4]+0.249*[#   7]+0.249*[#   8]
    |psi|^2 = 0.995
==== e(   4) =    -6.90717 eV ==== 
     psi = 0.249*[#   3]+0.249*[#   4]+0.249*[#   7]+0.249*[#   8]
    |psi|^2 = 0.995
==== e(   5) =    -2.72234 eV ==== 
     psi = 0.247*[#   3]+0.247*[#   4]+0.247*[#   7]+0.247*[#   8]
    |psi|^2 = 0.986
==== e(   6) =    -2.72234 eV ==== 
     psi = 0.247*[#   3]+0.247*[#   4]+0.247*[#   7]+0.247*[#   8]
    |psi|^2 = 0.986
==== e(   7) =     2.89657 eV ==== 
     psi = 0.009*[#   2]+0.009*[#   6]
    |psi|^2 = 0.019
==== e(   8) =     3.71389 eV ==== 
 
    |psi|^2 = 0.001

 k =   0.0000000000  0.0000000000  3.1956534001
==== e(   1) =   -19.20945 eV ==== 
     psi = 0.246*[#   1]+0.246*[#   5]+0.241*[#   2]+0.241*[#   6]
    |psi|^2 = 0.975
==== e(   2) =   -17.28697 eV ==== 
     psi = 0.349*[#   2]+0.349*[#   6]+0.143*[#   1]+0.143*[#   5]
    |psi|^2 = 0.982
==== e(   3) =    -6.73761 eV ==== 
     psi = 0.249*[#   3]+0.249*[#   4]+0.249*[#   7]+0.249*[#   8]
    |psi|^2 = 0.995
==== e(   4) =    -6.73761 eV ==== 
     psi = 0.249*[#   3]+0.249*[#   4]+0.249*[#   7]+0.249*[#   8]
    |psi|^2 = 0.995
==== e(   5) =    -2.96193 eV ==== 
     psi = 0.247*[#   3]+0.247*[#   4]+0.247*[#   7]+0.247*[#   8]
    |psi|^2 = 0.988
==== e(   6) =    -2.96193 eV ==== 
     psi = 0.247*[#   3]+0.247*[#   4]+0.247*[#   7]+0.247*[#   8]
    |psi|^2 = 0.988
==== e(   7) =     3.06188 eV ==== 
     psi = 0.007*[#   2]+0.007*[#   6]+0.001*[#   1]+0.001*[#   5]
    |psi|^2 = 0.017
==== e(   8) =     3.89730 eV ==== 
 
    |psi|^2 = 0.001

 k =   0.0000000000  0.0000000000  3.2735961659
==== e(   1) =   -19.11553 eV ==== 
     psi = 0.248*[#   2]+0.248*[#   6]+0.240*[#   1]+0.240*[#   5]
    |psi|^2 = 0.976
==== e(   2) =   -17.39898 eV ==== 
     psi = 0.343*[#   2]+0.343*[#   6]+0.148*[#   1]+0.148*[#   5]
    |psi|^2 = 0.982
==== e(   3) =    -6.56449 eV ==== 
     psi = 0.249*[#   3]+0.249*[#   4]+0.249*[#   7]+0.249*[#   8]
    |psi|^2 = 0.996
==== e(   4) =    -6.56449 eV ==== 
     psi = 0.249*[#   3]+0.249*[#   4]+0.249*[#   7]+0.249*[#   8]
    |psi|^2 = 0.996
==== e(   5) =    -3.19786 eV ==== 
     psi = 0.247*[#   3]+0.247*[#   4]+0.247*[#   7]+0.247*[#   8]
    |psi|^2 = 0.989
==== e(   6) =    -3.19786 eV ==== 
     psi = 0.247*[#   3]+0.247*[#   4]+0.247*[#   7]+0.247*[#   8]
    |psi|^2 = 0.989
==== e(   7) =     3.22996 eV ==== 
     psi = 0.006*[#   2]+0.006*[#   6]+0.002*[#   1]+0.002*[#   5]
    |psi|^2 = 0.016
==== e(   8) =     4.08517 eV ==== 
 
    |psi|^2 = 0.001

 k =   0.0000000000  0.0000000000  3.3515389318
==== e(   1) =   -19.02031 eV ==== 
     psi = 0.254*[#   2]+0.254*[#   6]+0.233*[#   1]+0.233*[#   5]
    |psi|^2 = 0.976
==== e(   2) =   -17.51027 eV ==== 
     psi = 0.338*[#   2]+0.338*[#   6]+0.153*[#   1]+0.153*[#   5]
    |psi|^2 = 0.982
==== e(   3) =    -6.38802 eV ==== 
     psi = 0.249*[#   3]+0.249*[#   4]+0.249*[#   7]+0.249*[#   8]
    |psi|^2 = 0.996
==== e(   4) =    -6.38802 eV ==== 
     psi = 0.249*[#   3]+0.249*[#   4]+0.249*[#   7]+0.249*[#   8]
    |psi|^2 = 0.996
==== e(   5) =    -3.42987 eV ==== 
     psi = 0.247*[#   3]+0.247*[#   4]+0.247*[#   7]+0.247*[#   8]
    |psi|^2 = 0.990
==== e(   6) =    -3.42987 eV ==== 
     psi = 0.247*[#   3]+0.247*[#   4]+0.247*[#   7]+0.247*[#   8]
    |psi|^2 = 0.990
==== e(   7) =     3.40058 eV ==== 
     psi = 0.005*[#   2]+0.005*[#   6]+0.003*[#   1]+0.003*[#   5]
    |psi|^2 = 0.015
==== e(   8) =     4.27752 eV ==== 
 
    |psi|^2 = 0.001

 k =   0.0000000000  0.0000000000  3.4294816976
==== e(   1) =   -18.92401 eV ==== 
     psi = 0.261*[#   2]+0.261*[#   6]+0.227*[#   1]+0.227*[#   5]
    |psi|^2 = 0.976
==== e(   2) =   -17.62059 eV ==== 
     psi = 0.333*[#   2]+0.333*[#   6]+0.158*[#   1]+0.158*[#   5]
    |psi|^2 = 0.981
==== e(   3) =    -6.20853 eV ==== 
     psi = 0.249*[#   3]+0.249*[#   4]+0.249*[#   7]+0.249*[#   8]
    |psi|^2 = 0.996
==== e(   4) =    -6.20853 eV ==== 
     psi = 0.249*[#   3]+0.249*[#   4]+0.249*[#   7]+0.249*[#   8]
    |psi|^2 = 0.996
==== e(   5) =    -3.65759 eV ==== 
     psi = 0.248*[#   3]+0.248*[#   4]+0.248*[#   7]+0.248*[#   8]
    |psi|^2 = 0.991
==== e(   6) =    -3.65759 eV ==== 
     psi = 0.248*[#   3]+0.248*[#   4]+0.248*[#   7]+0.248*[#   8]
    |psi|^2 = 0.991
==== e(   7) =     3.57343 eV ==== 
     psi = 0.004*[#   2]+0.004*[#   6]+0.004*[#   1]+0.004*[#   5]
    |psi|^2 = 0.014
==== e(   8) =     4.47430 eV ==== 
 
    |psi|^2 = 0.001

 k =   0.0000000000  0.0000000000  3.5074244635
==== e(   1) =   -18.82694 eV ==== 
     psi = 0.267*[#   2]+0.267*[#   6]+0.221*[#   1]+0.221*[#   5]
    |psi|^2 = 0.977
==== e(   2) =   -17.72957 eV ==== 
     psi = 0.327*[#   2]+0.327*[#   6]+0.163*[#   1]+0.163*[#   5]
    |psi|^2 = 0.981
==== e(   3) =    -6.02658 eV ==== 
     psi = 0.249*[#   3]+0.249*[#   4]+0.249*[#   7]+0.249*[#   8]
    |psi|^2 = 0.996
==== e(   4) =    -6.02658 eV ==== 
     psi = 0.249*[#   3]+0.249*[#   4]+0.249*[#   7]+0.249*[#   8]
    |psi|^2 = 0.996
==== e(   5) =    -3.88041 eV ==== 
     psi = 0.248*[#   3]+0.248*[#   4]+0.248*[#   7]+0.248*[#   8]
    |psi|^2 = 0.992
==== e(   6) =    -3.88041 eV ==== 
     psi = 0.248*[#   3]+0.248*[#   4]+0.248*[#   7]+0.248*[#   8]
    |psi|^2 = 0.992
==== e(   7) =     3.74812 eV ==== 
     psi = 0.005*[#   1]+0.005*[#   5]+0.003*[#   2]+0.003*[#   6]
    |psi|^2 = 0.015
==== e(   8) =     4.67546 eV ==== 
 
    |psi|^2 = 0.001

 k =   0.0000000000  0.0000000000  3.5853672293
==== e(   1) =   -18.72969 eV ==== 
     psi = 0.273*[#   2]+0.273*[#   6]+0.215*[#   1]+0.215*[#   5]
    |psi|^2 = 0.977
==== e(   2) =   -17.83663 eV ==== 
     psi = 0.322*[#   2]+0.322*[#   6]+0.168*[#   1]+0.168*[#   5]
    |psi|^2 = 0.980
==== e(   3) =    -5.84322 eV ==== 
     psi = 0.249*[#   3]+0.249*[#   4]+0.249*[#   7]+0.249*[#   8]
    |psi|^2 = 0.996
==== e(   4) =    -5.84322 eV ==== 
     psi = 0.249*[#   3]+0.249*[#   4]+0.249*[#   7]+0.249*[#   8]
    |psi|^2 = 0.996
==== e(   5) =    -4.09726 eV ==== 
     psi = 0.248*[#   3]+0.248*[#   4]+0.248*[#   7]+0.248*[#   8]
    |psi|^2 = 0.993
==== e(   6) =    -4.09726 eV ==== 
     psi = 0.248*[#   3]+0.248*[#   4]+0.248*[#   7]+0.248*[#   8]
    |psi|^2 = 0.993
==== e(   7) =     3.92413 eV ==== 
     psi = 0.006*[#   1]+0.006*[#   5]+0.002*[#   2]+0.002*[#   6]
    |psi|^2 = 0.017
==== e(   8) =     4.88080 eV ==== 
 
    |psi|^2 = 0.002

 k =   0.0000000000  0.0000000000  3.6633099952
==== e(   1) =   -18.63342 eV ==== 
     psi = 0.279*[#   2]+0.279*[#   6]+0.209*[#   1]+0.209*[#   5]
    |psi|^2 = 0.977
==== e(   2) =   -17.94055 eV ==== 
     psi = 0.316*[#   2]+0.316*[#   6]+0.174*[#   1]+0.174*[#   5]
    |psi|^2 = 0.980
==== e(   3) =    -5.66069 eV ==== 
     psi = 0.249*[#   3]+0.249*[#   4]+0.249*[#   7]+0.249*[#   8]
    |psi|^2 = 0.996
==== e(   4) =    -5.66069 eV ==== 
     psi = 0.249*[#   3]+0.249*[#   4]+0.249*[#   7]+0.249*[#   8]
    |psi|^2 = 0.996
==== e(   5) =    -4.30586 eV ==== 
     psi = 0.248*[#   3]+0.248*[#   4]+0.248*[#   7]+0.248*[#   8]
    |psi|^2 = 0.993
==== e(   6) =    -4.30586 eV ==== 
     psi = 0.248*[#   3]+0.248*[#   4]+0.248*[#   7]+0.248*[#   8]
    |psi|^2 = 0.993
==== e(   7) =     4.10068 eV ==== 
     psi = 0.008*[#   1]+0.008*[#   5]+0.001*[#   2]+0.001*[#   6]
    |psi|^2 = 0.019
==== e(   8) =     5.08666 eV ==== 
     psi = 0.003*[#   1]+0.003*[#   5]
    |psi|^2 = 0.007

 k =   0.0000000000  0.0000000000  3.7412527611
==== e(   1) =   -18.54105 eV ==== 
     psi = 0.285*[#   2]+0.285*[#   6]+0.204*[#   1]+0.204*[#   5]
    |psi|^2 = 0.978
==== e(   2) =   -18.03839 eV ==== 
     psi = 0.311*[#   2]+0.311*[#   6]+0.179*[#   1]+0.179*[#   5]
    |psi|^2 = 0.979
==== e(   3) =    -5.48469 eV ==== 
     psi = 0.249*[#   3]+0.249*[#   4]+0.249*[#   7]+0.249*[#   8]
    |psi|^2 = 0.996
==== e(   4) =    -5.48469 eV ==== 
     psi = 0.249*[#   3]+0.249*[#   4]+0.249*[#   7]+0.249*[#   8]
    |psi|^2 = 0.996
==== e(   5) =    -4.50050 eV ==== 
     psi = 0.248*[#   3]+0.248*[#   4]+0.249*[#   7]+0.249*[#   8]
    |psi|^2 = 0.994
==== e(   6) =    -4.50050 eV ==== 
     psi = 0.248*[#   3]+0.248*[#   4]+0.249*[#   7]+0.249*[#   8]
    |psi|^2 = 0.994
==== e(   7) =     4.27623 eV ==== 
     psi = 0.011*[#   1]+0.011*[#   5]
    |psi|^2 = 0.024
==== e(   8) =     5.00496 eV ==== 
     psi = 0.024*[#   1]+0.024*[#   5]
    |psi|^2 = 0.049

 k =   0.0000000000  0.0000000000  3.8191955269
==== e(   1) =   -18.46164 eV ==== 
     psi = 0.290*[#   2]+0.290*[#   6]+0.199*[#   1]+0.199*[#   5]
    |psi|^2 = 0.978
==== e(   2) =   -18.12110 eV ==== 
     psi = 0.306*[#   2]+0.306*[#   6]+0.184*[#   1]+0.184*[#   5]
    |psi|^2 = 0.979
==== e(   3) =    -5.33292 eV ==== 
     psi = 0.249*[#   3]+0.249*[#   4]+0.249*[#   7]+0.249*[#   8]
    |psi|^2 = 0.996
==== e(   4) =    -5.33292 eV ==== 
     psi = 0.249*[#   3]+0.249*[#   4]+0.249*[#   7]+0.249*[#   8]
    |psi|^2 = 0.996
==== e(   5) =    -4.66346 eV ==== 
     psi = 0.249*[#   3]+0.249*[#   4]+0.249*[#   7]+0.249*[#   8]
    |psi|^2 = 0.994
==== e(   6) =    -4.66346 eV ==== 
     psi = 0.249*[#   3]+0.249*[#   4]+0.249*[#   7]+0.249*[#   8]
    |psi|^2 = 0.994
==== e(   7) =     4.44556 eV ==== 
     psi = 0.015*[#   1]+0.015*[#   5]
    |psi|^2 = 0.031
==== e(   8) =     4.84144 eV ==== 
     psi = 0.017*[#   1]+0.017*[#   5]
    |psi|^2 = 0.035

 k =   0.0000000000  0.0000000000 -3.8971382928
==== e(   1) =   -18.42454 eV ==== 
     psi = 0.293*[#   6]+0.293*[#   2]+0.196*[#   1]+0.196*[#   5]
    |psi|^2 = 0.978
==== e(   2) =   -18.15929 eV ==== 
     psi = 0.303*[#   2]+0.303*[#   6]+0.186*[#   1]+0.186*[#   5]
    |psi|^2 = 0.979
==== e(   3) =    -5.26209 eV ==== 
     psi = 0.249*[#   3]+0.249*[#   4]+0.249*[#   7]+0.249*[#   8]
    |psi|^2 = 0.996
==== e(   4) =    -5.26209 eV ==== 
     psi = 0.249*[#   3]+0.249*[#   4]+0.249*[#   7]+0.249*[#   8]
    |psi|^2 = 0.996
==== e(   5) =    -4.73801 eV ==== 
     psi = 0.249*[#   3]+0.249*[#   4]+0.249*[#   7]+0.249*[#   8]
    |psi|^2 = 0.995
==== e(   6) =    -4.73801 eV ==== 
     psi = 0.249*[#   3]+0.249*[#   4]+0.249*[#   7]+0.249*[#   8]
    |psi|^2 = 0.995
==== e(   7) =     4.55678 eV ==== 
     psi = 0.021*[#   1]+0.021*[#   5]
    |psi|^2 = 0.043
==== e(   8) =     4.73194 eV ==== 
     psi = 0.010*[#   1]+0.010*[#   5]
    |psi|^2 = 0.021

Lowdin Charges: 

     Atom #   1: total charge =   3.9227, s =  0.8637, 
     Atom #   1: total charge =   3.9227, p =  3.0590, pz=  1.1000, px=  0.9795, py=  0.9795, 
     Atom #   2: total charge =   3.9226, s =  0.8637, 
     Atom #   2: total charge =   3.9226, p =  3.0589, pz=  1.1000, px=  0.9795, py=  0.9795, 
     Spilling Parameter:   0.0193
 
     PROJWFC      :  10m 4.83s CPU   1m34.78s WALL

 
   This run was terminated on:  23: 2:14  11Jun2021            

=------------------------------------------------------------------------------=
   JOB DONE.
=------------------------------------------------------------------------------=
