 
             +---------------------------------------------------+
             |                                                   |
             |                   WANNIER90                       |
             |                                                   |
             +---------------------------------------------------+
             |                                                   |
             |        Welcome to the Maximally-Localized         |
             |        Generalized Wannier Functions code         |
             |            http://www.wannier.org                 |
             |                                                   |
             |                                                   |
             |  Wannier90 Developer Group:                       |
             |    Giovanni Pizzi    (EPFL)                       |
             |    Valerio Vitale    (Cambridge)                  |
             |    David Vanderbilt  (Rutgers University)         |
             |    Nicola Marzari    (EPFL)                       |
             |    Ivo Souza         (Universidad del Pais Vasco) |
             |    Arash A. Mostofi  (Imperial College London)    |
             |    Jonathan R. Yates (University of Oxford)       |
             |                                                   |
             |  For the full list of Wannier90 3.x authors,      |
             |  please check the code documentation and the      |
             |  README on the GitHub page of the code            |
             |                                                   |
             |                                                   |
             |  Please cite                                      |
             |                                                   |
             |  [ref] "Wannier90 as a community code:            |
             |        new features and applications",            |
             |        G. Pizzi et al., J. Phys. Cond. Matt. 32,  |
             |        165902 (2020).                             |
             |        http://doi.org/10.1088/1361-648X/ab51ff    |
             |                                                   |
             |  in any publications arising from the use of      |
             |  this code. For the method please cite            |
             |                                                   |
             |  [ref] "Maximally Localized Generalised Wannier   |
             |         Functions for Composite Energy Bands"     |
             |         N. Marzari and D. Vanderbilt              |
             |         Phys. Rev. B 56 12847 (1997)              |
             |                                                   |
             |  [ref] "Maximally Localized Wannier Functions     |
             |         for Entangled Energy Bands"               |
             |         I. Souza, N. Marzari and D. Vanderbilt    |
             |         Phys. Rev. B 65 035109 (2001)             |
             |                                                   |
             |                                                   |
             | Copyright (c) 1996-2020                           |
             |        The Wannier90 Developer Group and          |
             |        individual contributors                    |
             |                                                   |
             |      Release: 3.1.0        5th March    2020      |
             |                                                   |
             | This program is free software; you can            |
             | redistribute it and/or modify it under the terms  |
             | of the GNU General Public License as published by |
             | the Free Software Foundation; either version 2 of |
             | the License, or (at your option) any later version|
             |                                                   |
             | This program is distributed in the hope that it   |
             | will be useful, but WITHOUT ANY WARRANTY; without |
             | even the implied warranty of MERCHANTABILITY or   |
             | FITNESS FOR A PARTICULAR PURPOSE. See the GNU     |
             | General Public License for more details.          |
             |                                                   |
             | You should have received a copy of the GNU General|
             | Public License along with this program; if not,   |
             | write to the Free Software Foundation, Inc.,      |
             | 675 Mass Ave, Cambridge, MA 02139, USA.           |
             |                                                   |
             +---------------------------------------------------+
             |    Execution started on 25Jun2021 at 10:12:11     |
             +---------------------------------------------------+
 
 ******************************************************************************
 * -> Using CODATA 2006 constant values                                       *
 *    (http://physics.nist.gov/cuu/Constants/index.html)                      *
 * -> Using Bohr value from CODATA                                            *
 ******************************************************************************
 

 Wannier90 is running in LIBRARY MODE

 Setting up k-point neighbours...

 
                                    ------
                                    SYSTEM
                                    ------
 
                              Lattice Vectors (Ang)
                    a_1     2.565542   0.000000   0.000000
                    a_2     0.000000  10.000000   0.000000
                    a_3     0.000000   0.000000  10.000000
 
                   Unit Cell Volume:     256.55420  (Ang^3)
 
                        Reciprocal-Space Vectors (Ang^-1)
                    b_1     2.449067   0.000000   0.000000
                    b_2     0.000000   0.628319   0.000000
                    b_3     0.000000   0.000000   0.628319
  
 *----------------------------------------------------------------------------*
 |   Site       Fractional Coordinate          Cartesian Coordinate (Ang)     |
 +----------------------------------------------------------------------------+
 | C    1   0.00015   0.50000   0.50000   |    0.00039   5.00000   5.00000    |
 | C    2   0.49282   0.50000   0.50000   |    1.26436   5.00000   5.00000    |
 *----------------------------------------------------------------------------*
                                -----------
                                PROJECTIONS
                                -----------
  
 +----------------------------------------------------------------------------+
 |     Frac. Coord.   l mr  r        z-axis               x-axis          Z/a |
 +----------------------------------------------------------------------------+
 |  0.00  0.50  0.50  1  1  1  0.000  0.000  1.000  1.000  0.000  0.000   1.0 |
 |  0.00  0.50  0.50  1  3  1  0.000  0.000  1.000  1.000  0.000  0.000   1.0 |
 |  0.49  0.50  0.50  1  1  1  0.000  0.000  1.000  1.000  0.000  0.000   1.0 |
 |  0.49  0.50  0.50  1  3  1  0.000  0.000  1.000  1.000  0.000  0.000   1.0 |
 +----------------------------------------------------------------------------+
  
                                ------------
                                K-POINT GRID
                                ------------
  
             Grid size = 40 x  1 x  1      Total points =   40
  
 *----------------------------------------------------------------------------*
 | k-point      Fractional Coordinate        Cartesian Coordinate (Ang^-1)    |
 +----------------------------------------------------------------------------+
 |     1    0.00000   0.00000   0.00000   |    0.00000   0.00000   0.00000    |
 |     2    0.02500   0.00000   0.00000   |    0.06123   0.00000   0.00000    |
 |     3    0.05000   0.00000   0.00000   |    0.12245   0.00000   0.00000    |
 |     4    0.07500   0.00000   0.00000   |    0.18368   0.00000   0.00000    |
 |     5    0.10000   0.00000   0.00000   |    0.24491   0.00000   0.00000    |
 |     6    0.12500   0.00000   0.00000   |    0.30613   0.00000   0.00000    |
 |     7    0.15000   0.00000   0.00000   |    0.36736   0.00000   0.00000    |
 |     8    0.17500   0.00000   0.00000   |    0.42859   0.00000   0.00000    |
 |     9    0.20000   0.00000   0.00000   |    0.48981   0.00000   0.00000    |
 |    10    0.22500   0.00000   0.00000   |    0.55104   0.00000   0.00000    |
 |    11    0.25000   0.00000   0.00000   |    0.61227   0.00000   0.00000    |
 |    12    0.27500   0.00000   0.00000   |    0.67349   0.00000   0.00000    |
 |    13    0.30000   0.00000   0.00000   |    0.73472   0.00000   0.00000    |
 |    14    0.32500   0.00000   0.00000   |    0.79595   0.00000   0.00000    |
 |    15    0.35000   0.00000   0.00000   |    0.85717   0.00000   0.00000    |
 |    16    0.37500   0.00000   0.00000   |    0.91840   0.00000   0.00000    |
 |    17    0.40000   0.00000   0.00000   |    0.97963   0.00000   0.00000    |
 |    18    0.42500   0.00000   0.00000   |    1.04085   0.00000   0.00000    |
 |    19    0.45000   0.00000   0.00000   |    1.10208   0.00000   0.00000    |
 |    20    0.47500   0.00000   0.00000   |    1.16331   0.00000   0.00000    |
 |    21    0.50000   0.00000   0.00000   |    1.22453   0.00000   0.00000    |
 |    22    0.52500   0.00000   0.00000   |    1.28576   0.00000   0.00000    |
 |    23    0.55000   0.00000   0.00000   |    1.34699   0.00000   0.00000    |
 |    24    0.57500   0.00000   0.00000   |    1.40821   0.00000   0.00000    |
 |    25    0.60000   0.00000   0.00000   |    1.46944   0.00000   0.00000    |
 |    26    0.62500   0.00000   0.00000   |    1.53067   0.00000   0.00000    |
 |    27    0.65000   0.00000   0.00000   |    1.59189   0.00000   0.00000    |
 |    28    0.67500   0.00000   0.00000   |    1.65312   0.00000   0.00000    |
 |    29    0.70000   0.00000   0.00000   |    1.71435   0.00000   0.00000    |
 |    30    0.72500   0.00000   0.00000   |    1.77557   0.00000   0.00000    |
 |    31    0.75000   0.00000   0.00000   |    1.83680   0.00000   0.00000    |
 |    32    0.77500   0.00000   0.00000   |    1.89803   0.00000   0.00000    |
 |    33    0.80000   0.00000   0.00000   |    1.95925   0.00000   0.00000    |
 |    34    0.82500   0.00000   0.00000   |    2.02048   0.00000   0.00000    |
 |    35    0.85000   0.00000   0.00000   |    2.08171   0.00000   0.00000    |
 |    36    0.87500   0.00000   0.00000   |    2.14293   0.00000   0.00000    |
 |    37    0.90000   0.00000   0.00000   |    2.20416   0.00000   0.00000    |
 |    38    0.92500   0.00000   0.00000   |    2.26539   0.00000   0.00000    |
 |    39    0.95000   0.00000   0.00000   |    2.32661   0.00000   0.00000    |
 |    40    0.97500   0.00000   0.00000   |    2.38784   0.00000   0.00000    |
 *----------------------------------------------------------------------------*
  
  
 *---------------------------------- MAIN ------------------------------------*
 |  Number of Wannier Functions               :                 4             |
 |  Number of Objective Wannier Functions     :                 4             |
 |  Number of input Bloch states              :                54             |
 |  Output verbosity (1=low, 5=high)          :                 2             |
 |  Timing Level (1=low, 5=high)              :                 1             |
 |  Optimisation (0=memory, 3=speed)          :                 3             |
 |  Length Unit                               :               Ang             |
 |  Post-processing setup (write *.nnkp)      :                 T             |
 |  Using Gamma-only branch of algorithms     :                 F             |
 *----------------------------------------------------------------------------*
 *------------------------------- WANNIERISE ---------------------------------*
 |  Total number of iterations                :             10000             |
 |  Number of CG steps before reset           :                 5             |
 |  Trial step length for line search         :             2.000             |
 |  Convergence tolerence                     :         0.100E-09             |
 |  Convergence window                        :                 3             |
 |  Iterations between writing output         :                 1             |
 |  Iterations between backing up to disk     :               100             |
 |  Write r^2_nm to file                      :                 F             |
 |  Write xyz WF centres to file              :                 F             |
 |  Write on-site energies <0n|H|0n> to file  :                 F             |
 |  Use guiding centre to control phases      :                 T             |
 |  Use phases for initial projections        :                 F             |
 |  Iterations before starting guiding centres:                 0             |
 |  Iterations between using guiding centres  :                 1             |
 *----------------------------------------------------------------------------*
 *------------------------------- DISENTANGLE --------------------------------*
 |  Using band disentanglement                :                 T             |
 |  Total number of iterations                :             10000             |
 |  Mixing ratio                              :             0.500             |
 |  Convergence tolerence                     :         1.000E-10             |
 |  Convergence window                        :                 3             |
 *----------------------------------------------------------------------------*
 *-------------------------------- PLOTTING ----------------------------------*
 |  Plotting interpolated bandstructure       :                 T             |
 |   Number of K-path sections                :                 1             |
 |   Divisions along first K-path section     :               100             |
 |   Output format                            :           gnuplot             |
 |   Output mode                              :               s-k             |
 *----------------------------------------------------------------------------*
 |   K-space path sections:                                                   |
 |    From: G       0.000  0.000  0.000     To: M       0.500  0.000  0.000   |
 *----------------------------------------------------------------------------*
 |  Plotting Hamiltonian in WF basis          :                 T             |
 *----------------------------------------------------------------------------*
 Time to read parameters        0.008 (sec)

 *---------------------------------- K-MESH ----------------------------------*
 +----------------------------------------------------------------------------+
 |                    Distance to Nearest-Neighbour Shells                    |
 |                    ------------------------------------                    |
 |          Shell             Distance (Ang^-1)          Multiplicity         |
 |          -----             -----------------          ------------         |
 |             1                   0.061227                      2            |
 |             2                   0.122453                      2            |
 |             3                   0.183680                      2            |
 |             4                   0.244907                      2            |
 |             5                   0.306133                      2            |
 |             6                   0.367360                      2            |
 |             7                   0.428587                      2            |
 |             8                   0.489813                      2            |
 |             9                   0.551040                      2            |
 |            10                   0.612267                      2            |
 |            11                   0.628319                      4            |
 |            12                   0.631295                      8            |
 |            13                   0.640140                      8            |
 |            14                   0.654616                      8            |
 |            15                   0.673494                      2            |
 |            16                   0.674362                      8            |
 |            17                   0.698929                      8            |
 |            18                   0.727831                      8            |
 |            19                   0.734720                      2            |
 |            20                   0.760573                      8            |
 |            21                   0.795947                      2            |
 |            22                   0.796682                      8            |
 |            23                   0.835721                      8            |
 |            24                   0.857174                      2            |
 |            25                   0.877300                      8            |
 |            26                   0.888577                      4            |
 |            27                   0.890683                      8            |
 |            28                   0.896974                      8            |
 |            29                   0.907363                      8            |
 |            30                   0.918400                      2            |
 |            31                   0.921074                      8            |
 |            32                   0.921709                      8            |
 |            33                   0.939833                      8            |
 |            34                   0.961521                      8            |
 |            35                   0.966746                      8            |
 |            36                   0.979627                      2            |
 +----------------------------------------------------------------------------+
 | The b-vectors are chosen automatically                                     |
 | Shell:  1 w_b  133.3793223      (Ang^2)                                    |
 | Shell:  1 w_b  133.3793223      (Ang^2)                                    |
 | Shell:  2 w_b    1.2665148      (Ang^2)                                    |
 | The following shells are used:   1, 11                                     |
 +----------------------------------------------------------------------------+
 |                        Shell   # Nearest-Neighbours                        |
 |                        -----   --------------------                        |
 |                          1               2                                 |
 |                         11               4                                 |
 +----------------------------------------------------------------------------+
 | Completeness relation is fully satisfied [Eq. (B1), PRB 56, 12847 (1997)]  |
 +----------------------------------------------------------------------------+
 |                  b_k Vectors (Ang^-1) and Weights (Ang^2)                  |
 |                  ----------------------------------------                  |
 |            No.         b_k(x)      b_k(y)      b_k(z)        w_b           |
 |            ---        --------------------------------     --------        |
 |             1         0.061227    0.000000    0.000000   133.379322        |
 |             2        -0.061227    0.000000    0.000000   133.379322        |
 |             3         0.000000    0.628319    0.000000     1.266515        |
 |             4         0.000000    0.000000    0.628319     1.266515        |
 |             5         0.000000    0.000000   -0.628319     1.266515        |
 |             6         0.000000   -0.628319    0.000000     1.266515        |
 +----------------------------------------------------------------------------+
 |                           b_k Directions (Ang^-1)                          |
 |                           -----------------------                          |
 |            No.           x           y           z                         |
 |            ---        --------------------------------                     |
 |             1         0.061227    0.000000    0.000000                     |
 |             2         0.000000    0.628319    0.000000                     |
 |             3         0.000000    0.000000    0.628319                     |
 +----------------------------------------------------------------------------+
  
 Time to write kmesh            0.036 (sec)

 carbyne.nnkp written.
 Time to write kmesh            0.036 (sec)

 Finished setting up k-point neighbours.

 Exiting wannier_setup in wannier90 10:12:11 

 Resuming Wannier90 at 10:12:24 

 
                                    ------
                                    SYSTEM
                                    ------
 
                              Lattice Vectors (Ang)
                    a_1     2.565542   0.000000   0.000000
                    a_2     0.000000  10.000000   0.000000
                    a_3     0.000000   0.000000  10.000000
 
                   Unit Cell Volume:     256.55420  (Ang^3)
 
                        Reciprocal-Space Vectors (Ang^-1)
                    b_1     2.449067   0.000000   0.000000
                    b_2     0.000000   0.628319   0.000000
                    b_3     0.000000   0.000000   0.628319
  
 *----------------------------------------------------------------------------*
 |   Site       Fractional Coordinate          Cartesian Coordinate (Ang)     |
 +----------------------------------------------------------------------------+
 | C    1   0.00015   0.50000   0.50000   |    0.00039   5.00000   5.00000    |
 | C    2   0.49282   0.50000   0.50000   |    1.26436   5.00000   5.00000    |
 *----------------------------------------------------------------------------*
                                -----------
                                PROJECTIONS
                                -----------
  
 +----------------------------------------------------------------------------+
 |     Frac. Coord.   l mr  r        z-axis               x-axis          Z/a |
 +----------------------------------------------------------------------------+
 |  0.00  0.50  0.50  1  1  1  0.000  0.000  1.000  1.000  0.000  0.000   1.0 |
 |  0.00  0.50  0.50  1  3  1  0.000  0.000  1.000  1.000  0.000  0.000   1.0 |
 |  0.49  0.50  0.50  1  1  1  0.000  0.000  1.000  1.000  0.000  0.000   1.0 |
 |  0.49  0.50  0.50  1  3  1  0.000  0.000  1.000  1.000  0.000  0.000   1.0 |
 +----------------------------------------------------------------------------+
  
                                ------------
                                K-POINT GRID
                                ------------
  
             Grid size = 40 x  1 x  1      Total points =   40
  
 *----------------------------------------------------------------------------*
 | k-point      Fractional Coordinate        Cartesian Coordinate (Ang^-1)    |
 +----------------------------------------------------------------------------+
 |     1    0.00000   0.00000   0.00000   |    0.00000   0.00000   0.00000    |
 |     2    0.02500   0.00000   0.00000   |    0.06123   0.00000   0.00000    |
 |     3    0.05000   0.00000   0.00000   |    0.12245   0.00000   0.00000    |
 |     4    0.07500   0.00000   0.00000   |    0.18368   0.00000   0.00000    |
 |     5    0.10000   0.00000   0.00000   |    0.24491   0.00000   0.00000    |
 |     6    0.12500   0.00000   0.00000   |    0.30613   0.00000   0.00000    |
 |     7    0.15000   0.00000   0.00000   |    0.36736   0.00000   0.00000    |
 |     8    0.17500   0.00000   0.00000   |    0.42859   0.00000   0.00000    |
 |     9    0.20000   0.00000   0.00000   |    0.48981   0.00000   0.00000    |
 |    10    0.22500   0.00000   0.00000   |    0.55104   0.00000   0.00000    |
 |    11    0.25000   0.00000   0.00000   |    0.61227   0.00000   0.00000    |
 |    12    0.27500   0.00000   0.00000   |    0.67349   0.00000   0.00000    |
 |    13    0.30000   0.00000   0.00000   |    0.73472   0.00000   0.00000    |
 |    14    0.32500   0.00000   0.00000   |    0.79595   0.00000   0.00000    |
 |    15    0.35000   0.00000   0.00000   |    0.85717   0.00000   0.00000    |
 |    16    0.37500   0.00000   0.00000   |    0.91840   0.00000   0.00000    |
 |    17    0.40000   0.00000   0.00000   |    0.97963   0.00000   0.00000    |
 |    18    0.42500   0.00000   0.00000   |    1.04085   0.00000   0.00000    |
 |    19    0.45000   0.00000   0.00000   |    1.10208   0.00000   0.00000    |
 |    20    0.47500   0.00000   0.00000   |    1.16331   0.00000   0.00000    |
 |    21    0.50000   0.00000   0.00000   |    1.22453   0.00000   0.00000    |
 |    22    0.52500   0.00000   0.00000   |    1.28576   0.00000   0.00000    |
 |    23    0.55000   0.00000   0.00000   |    1.34699   0.00000   0.00000    |
 |    24    0.57500   0.00000   0.00000   |    1.40821   0.00000   0.00000    |
 |    25    0.60000   0.00000   0.00000   |    1.46944   0.00000   0.00000    |
 |    26    0.62500   0.00000   0.00000   |    1.53067   0.00000   0.00000    |
 |    27    0.65000   0.00000   0.00000   |    1.59189   0.00000   0.00000    |
 |    28    0.67500   0.00000   0.00000   |    1.65312   0.00000   0.00000    |
 |    29    0.70000   0.00000   0.00000   |    1.71435   0.00000   0.00000    |
 |    30    0.72500   0.00000   0.00000   |    1.77557   0.00000   0.00000    |
 |    31    0.75000   0.00000   0.00000   |    1.83680   0.00000   0.00000    |
 |    32    0.77500   0.00000   0.00000   |    1.89803   0.00000   0.00000    |
 |    33    0.80000   0.00000   0.00000   |    1.95925   0.00000   0.00000    |
 |    34    0.82500   0.00000   0.00000   |    2.02048   0.00000   0.00000    |
 |    35    0.85000   0.00000   0.00000   |    2.08171   0.00000   0.00000    |
 |    36    0.87500   0.00000   0.00000   |    2.14293   0.00000   0.00000    |
 |    37    0.90000   0.00000   0.00000   |    2.20416   0.00000   0.00000    |
 |    38    0.92500   0.00000   0.00000   |    2.26539   0.00000   0.00000    |
 |    39    0.95000   0.00000   0.00000   |    2.32661   0.00000   0.00000    |
 |    40    0.97500   0.00000   0.00000   |    2.38784   0.00000   0.00000    |
 *----------------------------------------------------------------------------*
  
  
 *---------------------------------- MAIN ------------------------------------*
 |  Number of Wannier Functions               :                 4             |
 |  Number of Objective Wannier Functions     :                 4             |
 |  Number of input Bloch states              :                54             |
 |  Output verbosity (1=low, 5=high)          :                 2             |
 |  Timing Level (1=low, 5=high)              :                 1             |
 |  Optimisation (0=memory, 3=speed)          :                 3             |
 |  Length Unit                               :               Ang             |
 |  Post-processing setup (write *.nnkp)      :                 T             |
 |  Using Gamma-only branch of algorithms     :                 F             |
 *----------------------------------------------------------------------------*
 *------------------------------- WANNIERISE ---------------------------------*
 |  Total number of iterations                :             10000             |
 |  Number of CG steps before reset           :                 5             |
 |  Trial step length for line search         :             2.000             |
 |  Convergence tolerence                     :         0.100E-09             |
 |  Convergence window                        :                 3             |
 |  Iterations between writing output         :                 1             |
 |  Iterations between backing up to disk     :               100             |
 |  Write r^2_nm to file                      :                 F             |
 |  Write xyz WF centres to file              :                 F             |
 |  Write on-site energies <0n|H|0n> to file  :                 F             |
 |  Use guiding centre to control phases      :                 T             |
 |  Use phases for initial projections        :                 F             |
 |  Iterations before starting guiding centres:                 0             |
 |  Iterations between using guiding centres  :                 1             |
 *----------------------------------------------------------------------------*
 *------------------------------- DISENTANGLE --------------------------------*
 |  Using band disentanglement                :                 T             |
 |  Total number of iterations                :             10000             |
 |  Mixing ratio                              :             0.500             |
 |  Convergence tolerence                     :         1.000E-10             |
 |  Convergence window                        :                 3             |
 *----------------------------------------------------------------------------*
 *-------------------------------- PLOTTING ----------------------------------*
 |  Plotting interpolated bandstructure       :                 T             |
 |   Number of K-path sections                :                 1             |
 |   Divisions along first K-path section     :               100             |
 |   Output format                            :           gnuplot             |
 |   Output mode                              :               s-k             |
 *----------------------------------------------------------------------------*
 |   K-space path sections:                                                   |
 |    From: G       0.000  0.000  0.000     To: M       0.500  0.000  0.000   |
 *----------------------------------------------------------------------------*
 |  Plotting Hamiltonian in WF basis          :                 T             |
 *----------------------------------------------------------------------------*
 Time to read parameters        0.002 (sec)

 *---------------------------------- K-MESH ----------------------------------*
 +----------------------------------------------------------------------------+
 |                    Distance to Nearest-Neighbour Shells                    |
 |                    ------------------------------------                    |
 |          Shell             Distance (Ang^-1)          Multiplicity         |
 |          -----             -----------------          ------------         |
 |             1                   0.061227                      2            |
 |             2                   0.122453                      2            |
 |             3                   0.183680                      2            |
 |             4                   0.244907                      2            |
 |             5                   0.306133                      2            |
 |             6                   0.367360                      2            |
 |             7                   0.428587                      2            |
 |             8                   0.489813                      2            |
 |             9                   0.551040                      2            |
 |            10                   0.612267                      2            |
 |            11                   0.628319                      4            |
 |            12                   0.631295                      8            |
 |            13                   0.640140                      8            |
 |            14                   0.654616                      8            |
 |            15                   0.673494                      2            |
 |            16                   0.674362                      8            |
 |            17                   0.698929                      8            |
 |            18                   0.727831                      8            |
 |            19                   0.734720                      2            |
 |            20                   0.760573                      8            |
 |            21                   0.795947                      2            |
 |            22                   0.796682                      8            |
 |            23                   0.835721                      8            |
 |            24                   0.857174                      2            |
 |            25                   0.877300                      8            |
 |            26                   0.888577                      4            |
 |            27                   0.890683                      8            |
 |            28                   0.896974                      8            |
 |            29                   0.907363                      8            |
 |            30                   0.918400                      2            |
 |            31                   0.921074                      8            |
 |            32                   0.921709                      8            |
 |            33                   0.939833                      8            |
 |            34                   0.961521                      8            |
 |            35                   0.966746                      8            |
 |            36                   0.979627                      2            |
 +----------------------------------------------------------------------------+
 | The b-vectors are chosen automatically                                     |
 | Shell:  1 w_b  133.3793223      (Ang^2)                                    |
 | Shell:  1 w_b  133.3793223      (Ang^2)                                    |
 | Shell:  2 w_b    1.2665148      (Ang^2)                                    |
 | The following shells are used:   1, 11                                     |
 +----------------------------------------------------------------------------+
 |                        Shell   # Nearest-Neighbours                        |
 |                        -----   --------------------                        |
 |                          1               2                                 |
 |                         11               4                                 |
 +----------------------------------------------------------------------------+
 | Completeness relation is fully satisfied [Eq. (B1), PRB 56, 12847 (1997)]  |
 +----------------------------------------------------------------------------+
 |                  b_k Vectors (Ang^-1) and Weights (Ang^2)                  |
 |                  ----------------------------------------                  |
 |            No.         b_k(x)      b_k(y)      b_k(z)        w_b           |
 |            ---        --------------------------------     --------        |
 |             1         0.061227    0.000000    0.000000   133.379322        |
 |             2        -0.061227    0.000000    0.000000   133.379322        |
 |             3         0.000000    0.628319    0.000000     1.266515        |
 |             4         0.000000    0.000000    0.628319     1.266515        |
 |             5         0.000000    0.000000   -0.628319     1.266515        |
 |             6         0.000000   -0.628319    0.000000     1.266515        |
 +----------------------------------------------------------------------------+
 |                           b_k Directions (Ang^-1)                          |
 |                           -----------------------                          |
 |            No.           x           y           z                         |
 |            ---        --------------------------------                     |
 |             1         0.061227    0.000000    0.000000                     |
 |             2         0.000000    0.628319    0.000000                     |
 |             3         0.000000    0.000000    0.628319                     |
 +----------------------------------------------------------------------------+
  
 Time to get kmesh              0.021 (sec)

 *------------------------------- DISENTANGLE --------------------------------*
 +----------------------------------------------------------------------------+
 |                              Energy  Windows                               |
 |                              ---------------                               |
 |                   Outer:   -9.73299  to   21.79210  (eV)                   |
 |                   Inner:   -9.73299  to   -0.20000  (eV)                   |
 +----------------------------------------------------------------------------+
 |                        K-points with Frozen States                         |
 |                        ---------------------------                         |
 |     1     2     3     4     5     6     7     8     9    10    11    12    |
 |    13    14    15    16    17    18    19    20    21    22    23    24    |
 |    25    26    27    28    29    30    31    32    33    34    35    36    |
 |    37    38    39    40                                                    |
 +----------------------------------------------------------------------------+
   Number of target bands to extract:    4
 +----------------------------------------------------------------------------+
 |                                  Windows                                   |
 |                                  -------                                   |
 |               K-point      Ndimwin     Ndimfroz    Nfirstwin               |
 |               ----------------------------------------------               |
 |                   1           54            2           1                  |
 |                   2           54            2           1                  |
 |                   3           54            2           1                  |
 |                   4           54            2           1                  |
 |                   5           54            2           1                  |
 |                   6           54            2           1                  |
 |                   7           54            2           1                  |
 |                   8           54            2           1                  |
 |                   9           54            2           1                  |
 |                  10           54            2           1                  |
 |                  11           54            2           1                  |
 |                  12           54            2           1                  |
 |                  13           54            2           1                  |
 |                  14           54            4           1                  |
 |                  15           54            4           1                  |
 |                  16           54            4           1                  |
 |                  17           54            4           1                  |
 |                  18           54            4           1                  |
 |                  19           54            4           1                  |
 |                  20           54            4           1                  |
 |                  21           54            4           1                  |
 |                  22           54            4           1                  |
 |                  23           54            4           1                  |
 |                  24           54            4           1                  |
 |                  25           54            4           1                  |
 |                  26           54            4           1                  |
 |                  27           54            4           1                  |
 |                  28           54            4           1                  |
 |                  29           54            2           1                  |
 |                  30           54            2           1                  |
 |                  31           54            2           1                  |
 |                  32           54            2           1                  |
 |                  33           54            2           1                  |
 |                  34           54            2           1                  |
 |                  35           54            2           1                  |
 |                  36           54            2           1                  |
 |                  37           54            2           1                  |
 |                  38           54            2           1                  |
 |                  39           54            2           1                  |
 |                  40           54            2           1                  |
 +----------------------------------------------------------------------------+

                   Unitarised projection of Wannier functions                  
                   ------------------------------------------                  
   A_mn = <psi_m|g_n> --> S = A.A^+ --> U = S^-1/2.A
   In dis_project... done
   Using an inner window (linner = T)
   In dis_proj_froz... done

                   Extraction of optimally-connected subspace                  
                   ------------------------------------------                  
 +---------------------------------------------------------------------+<-- DIS
 |  Iter     Omega_I(i-1)      Omega_I(i)      Delta (frac.)    Time   |<-- DIS
 +---------------------------------------------------------------------+<-- DIS
       1       4.09458430       3.88203237       5.475E-02      0.00    <-- DIS
       2       3.89559480       3.78974246       2.793E-02      0.02    <-- DIS
       3       3.83632971       3.74289359       2.496E-02      0.03    <-- DIS
       4       3.78105465       3.70773405       1.978E-02      0.05    <-- DIS
       5       3.73692829       3.67999420       1.547E-02      0.06    <-- DIS
       6       3.70233097       3.65756507       1.224E-02      0.08    <-- DIS
       7       3.67493874       3.63907193       9.856E-03      0.10    <-- DIS
       8       3.65287724       3.62355985       8.091E-03      0.11    <-- DIS
       9       3.63477558       3.61034566       6.767E-03      0.13    <-- DIS
      10       3.61965247       3.59893054       5.758E-03      0.14    <-- DIS
      11       3.60680446       3.58894435       4.976E-03      0.16    <-- DIS
      12       3.59572231       3.58010864       4.361E-03      0.18    <-- DIS
      13       3.58603267       3.57221145       3.869E-03      0.19    <-- DIS
      14       3.57745806       3.56508970       3.469E-03      0.21    <-- DIS
      15       3.56978958       3.55861661       3.140E-03      0.22    <-- DIS
      16       3.56286793       3.55269270       2.864E-03      0.24    <-- DIS
      17       3.55657018       3.54723914       2.631E-03      0.25    <-- DIS
      18       3.55080040       3.54219286       2.430E-03      0.27    <-- DIS
      19       3.54548290       3.53750293       2.256E-03      0.29    <-- DIS
      20       3.54055731       3.53312779       2.103E-03      0.30    <-- DIS
      21       3.53597497       3.52903322       1.967E-03      0.32    <-- DIS
      22       3.53169624       3.52519076       1.845E-03      0.33    <-- DIS
      23       3.52768851       3.52157647       1.736E-03      0.35    <-- DIS
      24       3.52392463       3.51817007       1.636E-03      0.36    <-- DIS
      25       3.52038179       3.51495415       1.544E-03      0.38    <-- DIS
      26       3.51704063       3.51191367       1.460E-03      0.39    <-- DIS
      27       3.51388453       3.50903548       1.382E-03      0.41    <-- DIS
      28       3.51089911       3.50630804       1.309E-03      0.43    <-- DIS
      29       3.50807178       3.50372108       1.242E-03      0.44    <-- DIS
      30       3.50539148       3.50126541       1.178E-03      0.46    <-- DIS
      31       3.50284833       3.49893279       1.119E-03      0.47    <-- DIS
      32       3.50043352       3.49671572       1.063E-03      0.49    <-- DIS
      33       3.49813908       3.49460738       1.011E-03      0.50    <-- DIS
      34       3.49595778       3.49260152       9.610E-04      0.52    <-- DIS
      35       3.49388302       3.49069240       9.140E-04      0.53    <-- DIS
      36       3.49190877       3.48887471       8.696E-04      0.55    <-- DIS
      37       3.49002944       3.48714352       8.276E-04      0.56    <-- DIS
      38       3.48823986       3.48549426       7.877E-04      0.58    <-- DIS
      39       3.48653527       3.48392264       7.499E-04      0.60    <-- DIS
      40       3.48491118       3.48242468       7.140E-04      0.61    <-- DIS
      41       3.48336344       3.48099664       6.799E-04      0.63    <-- DIS
      42       3.48188815       3.47963499       6.475E-04      0.64    <-- DIS
      43       3.48048165       3.47833644       6.167E-04      0.66    <-- DIS
      44       3.47914049       3.47709787       5.874E-04      0.67    <-- DIS
      45       3.47786145       3.47591635       5.596E-04      0.69    <-- DIS
      46       3.47664148       3.47478910       5.331E-04      0.70    <-- DIS
      47       3.47547769       3.47371351       5.079E-04      0.72    <-- DIS
      48       3.47436736       3.47268709       4.839E-04      0.74    <-- DIS
      49       3.47330793       3.47170750       4.610E-04      0.75    <-- DIS
      50       3.47229695       3.47077251       4.392E-04      0.77    <-- DIS
      51       3.47133212       3.46988001       4.185E-04      0.78    <-- DIS
      52       3.47041126       3.46902802       3.987E-04      0.80    <-- DIS
      53       3.46953228       3.46821461       3.799E-04      0.81    <-- DIS
      54       3.46869322       3.46743801       3.620E-04      0.83    <-- DIS
      55       3.46789222       3.46669648       3.449E-04      0.84    <-- DIS
      56       3.46712748       3.46598840       3.286E-04      0.86    <-- DIS
      57       3.46639734       3.46531222       3.131E-04      0.87    <-- DIS
      58       3.46570017       3.46466647       2.984E-04      0.89    <-- DIS
      59       3.46503446       3.46404976       2.843E-04      0.91    <-- DIS
      60       3.46439876       3.46346073       2.708E-04      0.92    <-- DIS
      61       3.46379167       3.46289813       2.580E-04      0.94    <-- DIS
      62       3.46321190       3.46236075       2.458E-04      0.95    <-- DIS
      63       3.46265818       3.46184744       2.342E-04      0.97    <-- DIS
      64       3.46212933       3.46135709       2.231E-04      0.98    <-- DIS
      65       3.46162420       3.46088867       2.125E-04      1.00    <-- DIS
      66       3.46114172       3.46044117       2.024E-04      1.01    <-- DIS
      67       3.46068086       3.46001366       1.928E-04      1.03    <-- DIS
      68       3.46024063       3.45960521       1.837E-04      1.04    <-- DIS
      69       3.45982010       3.45921498       1.749E-04      1.06    <-- DIS
      70       3.45941838       3.45884214       1.666E-04      1.07    <-- DIS
      71       3.45903461       3.45848591       1.587E-04      1.09    <-- DIS
      72       3.45866798       3.45814553       1.511E-04      1.10    <-- DIS
      73       3.45831772       3.45782030       1.439E-04      1.12    <-- DIS
      74       3.45798308       3.45750953       1.370E-04      1.14    <-- DIS
      75       3.45766338       3.45721257       1.304E-04      1.15    <-- DIS
      76       3.45735793       3.45692880       1.241E-04      1.17    <-- DIS
      77       3.45706609       3.45665764       1.182E-04      1.18    <-- DIS
      78       3.45678725       3.45639851       1.125E-04      1.20    <-- DIS
      79       3.45652084       3.45615088       1.070E-04      1.21    <-- DIS
      80       3.45626628       3.45591424       1.019E-04      1.23    <-- DIS
      81       3.45602305       3.45568809       9.693E-05      1.24    <-- DIS
      82       3.45579064       3.45547196       9.222E-05      1.26    <-- DIS
      83       3.45556858       3.45526542       8.774E-05      1.27    <-- DIS
      84       3.45535638       3.45506802       8.346E-05      1.29    <-- DIS
      85       3.45515362       3.45487936       7.938E-05      1.30    <-- DIS
      86       3.45495988       3.45469906       7.550E-05      1.32    <-- DIS
      87       3.45477474       3.45452674       7.179E-05      1.33    <-- DIS
      88       3.45459783       3.45436205       6.826E-05      1.35    <-- DIS
      89       3.45442878       3.45420464       6.489E-05      1.37    <-- DIS
      90       3.45426723       3.45405419       6.168E-05      1.38    <-- DIS
      91       3.45411286       3.45391040       5.862E-05      1.40    <-- DIS
      92       3.45396535       3.45377296       5.570E-05      1.41    <-- DIS
      93       3.45382438       3.45364160       5.292E-05      1.43    <-- DIS
      94       3.45368967       3.45351605       5.027E-05      1.44    <-- DIS
      95       3.45356094       3.45339604       4.775E-05      1.46    <-- DIS
      96       3.45343792       3.45328134       4.534E-05      1.47    <-- DIS
      97       3.45332036       3.45317170       4.305E-05      1.49    <-- DIS
      98       3.45320802       3.45306691       4.087E-05      1.50    <-- DIS
      99       3.45310066       3.45296674       3.878E-05      1.52    <-- DIS
     100       3.45299807       3.45287099       3.680E-05      1.53    <-- DIS
     101       3.45290002       3.45277947       3.491E-05      1.55    <-- DIS
     102       3.45280633       3.45269200       3.311E-05      1.56    <-- DIS
     103       3.45271679       3.45260838       3.140E-05      1.58    <-- DIS
     104       3.45263122       3.45252845       2.977E-05      1.60    <-- DIS
     105       3.45254945       3.45245205       2.821E-05      1.61    <-- DIS
     106       3.45247131       3.45237902       2.673E-05      1.63    <-- DIS
     107       3.45239663       3.45230921       2.532E-05      1.64    <-- DIS
     108       3.45232527       3.45224248       2.398E-05      1.66    <-- DIS
     109       3.45225707       3.45217869       2.270E-05      1.67    <-- DIS
     110       3.45219189       3.45211771       2.149E-05      1.69    <-- DIS
     111       3.45212961       3.45205943       2.033E-05      1.70    <-- DIS
     112       3.45207009       3.45200371       1.923E-05      1.72    <-- DIS
     113       3.45201321       3.45195045       1.818E-05      1.73    <-- DIS
     114       3.45195885       3.45189954       1.718E-05      1.75    <-- DIS
     115       3.45190690       3.45185087       1.623E-05      1.76    <-- DIS
     116       3.45185726       3.45180434       1.533E-05      1.78    <-- DIS
     117       3.45180982       3.45175987       1.447E-05      1.79    <-- DIS
     118       3.45176449       3.45171736       1.365E-05      1.81    <-- DIS
     119       3.45172117       3.45167672       1.288E-05      1.82    <-- DIS
     120       3.45167977       3.45163787       1.214E-05      1.84    <-- DIS
     121       3.45164020       3.45160073       1.144E-05      1.86    <-- DIS
     122       3.45160240       3.45156522       1.077E-05      1.87    <-- DIS
     123       3.45156627       3.45153128       1.014E-05      1.89    <-- DIS
     124       3.45153174       3.45149884       9.533E-06      1.93    <-- DIS
     125       3.45149875       3.45146782       8.960E-06      1.95    <-- DIS
     126       3.45146722       3.45143817       8.416E-06      1.97    <-- DIS
     127       3.45143710       3.45140983       7.900E-06      1.99    <-- DIS
     128       3.45140831       3.45138273       7.409E-06      2.00    <-- DIS
     129       3.45138079       3.45135683       6.943E-06      2.02    <-- DIS
     130       3.45135451       3.45133207       6.501E-06      2.03    <-- DIS
     131       3.45132938       3.45130839       6.082E-06      2.05    <-- DIS
     132       3.45130538       3.45128576       5.684E-06      2.06    <-- DIS
     133       3.45128244       3.45126413       5.306E-06      2.08    <-- DIS
     134       3.45126052       3.45124344       4.948E-06      2.09    <-- DIS
     135       3.45123958       3.45122367       4.609E-06      2.11    <-- DIS
     136       3.45121956       3.45120477       4.287E-06      2.12    <-- DIS
     137       3.45120044       3.45118670       3.982E-06      2.14    <-- DIS
     138       3.45118217       3.45116942       3.693E-06      2.16    <-- DIS
     139       3.45116471       3.45115291       3.419E-06      2.17    <-- DIS
     140       3.45114802       3.45113712       3.160E-06      2.19    <-- DIS
     141       3.45113208       3.45112202       2.915E-06      2.20    <-- DIS
     142       3.45111685       3.45110759       2.683E-06      2.22    <-- DIS
     143       3.45110230       3.45109380       2.463E-06      2.23    <-- DIS
     144       3.45108839       3.45108061       2.256E-06      2.25    <-- DIS
     145       3.45107511       3.45106800       2.059E-06      2.26    <-- DIS
     146       3.45106241       3.45105594       1.874E-06      2.28    <-- DIS
     147       3.45105028       3.45104442       1.699E-06      2.29    <-- DIS
     148       3.45103869       3.45103340       1.533E-06      2.31    <-- DIS
     149       3.45102762       3.45102287       1.377E-06      2.32    <-- DIS
     150       3.45101704       3.45101280       1.230E-06      2.34    <-- DIS
     151       3.45100694       3.45100317       1.091E-06      2.35    <-- DIS
     152       3.45099728       3.45099397       9.605E-07      2.37    <-- DIS
     153       3.45098806       3.45098517       8.374E-07      2.39    <-- DIS
     154       3.45097924       3.45097675       7.214E-07      2.40    <-- DIS
     155       3.45097082       3.45096871       6.123E-07      2.42    <-- DIS
     156       3.45096278       3.45096102       5.098E-07      2.43    <-- DIS
     157       3.45095510       3.45095367       4.135E-07      2.45    <-- DIS
     158       3.45094775       3.45094664       3.230E-07      2.46    <-- DIS
     159       3.45094074       3.45093992       2.381E-07      2.48    <-- DIS
     160       3.45093404       3.45093350       1.586E-07      2.49    <-- DIS
     161       3.45092764       3.45092735       8.411E-08      2.51    <-- DIS
     162       3.45092153       3.45092148       1.439E-08      2.52    <-- DIS
     163       3.45091569       3.45091587      -5.078E-08      2.54    <-- DIS
     164       3.45091011       3.45091050      -1.116E-07      2.55    <-- DIS
     165       3.45090478       3.45090536      -1.684E-07      2.57    <-- DIS
     166       3.45089969       3.45090046      -2.213E-07      2.58    <-- DIS
     167       3.45089483       3.45089577      -2.706E-07      2.60    <-- DIS
     168       3.45089019       3.45089128      -3.163E-07      2.62    <-- DIS
     169       3.45088575       3.45088699      -3.587E-07      2.64    <-- DIS
     170       3.45088152       3.45088289      -3.981E-07      2.65    <-- DIS
     171       3.45087747       3.45087897      -4.344E-07      2.67    <-- DIS
     172       3.45087361       3.45087522      -4.680E-07      2.68    <-- DIS
     173       3.45086992       3.45087164      -4.989E-07      2.70    <-- DIS
     174       3.45086639       3.45086821      -5.273E-07      2.71    <-- DIS
     175       3.45086303       3.45086494      -5.533E-07      2.73    <-- DIS
     176       3.45085981       3.45086180      -5.771E-07      2.74    <-- DIS
     177       3.45085674       3.45085881      -5.988E-07      2.76    <-- DIS
     178       3.45085381       3.45085594      -6.185E-07      2.78    <-- DIS
     179       3.45085101       3.45085321      -6.363E-07      2.79    <-- DIS
     180       3.45084834       3.45085059      -6.522E-07      2.81    <-- DIS
     181       3.45084579       3.45084809      -6.666E-07      2.82    <-- DIS
     182       3.45084335       3.45084569      -6.793E-07      2.84    <-- DIS
     183       3.45084102       3.45084340      -6.905E-07      2.85    <-- DIS
     184       3.45083880       3.45084122      -7.003E-07      2.87    <-- DIS
     185       3.45083668       3.45083912      -7.088E-07      2.88    <-- DIS
     186       3.45083465       3.45083712      -7.161E-07      2.90    <-- DIS
     187       3.45083272       3.45083521      -7.221E-07      2.91    <-- DIS
     188       3.45083087       3.45083338      -7.271E-07      2.93    <-- DIS
     189       3.45082911       3.45083163      -7.310E-07      2.94    <-- DIS
     190       3.45082743       3.45082996      -7.340E-07      2.96    <-- DIS
     191       3.45082582       3.45082836      -7.360E-07      2.97    <-- DIS
     192       3.45082429       3.45082683      -7.372E-07      3.00    <-- DIS
     193       3.45082283       3.45082537      -7.376E-07      3.02    <-- DIS
     194       3.45082143       3.45082397      -7.373E-07      3.05    <-- DIS
     195       3.45082010       3.45082264      -7.362E-07      3.07    <-- DIS
     196       3.45081883       3.45082136      -7.345E-07      3.09    <-- DIS
     197       3.45081761       3.45082014      -7.322E-07      3.10    <-- DIS
     198       3.45081645       3.45081897      -7.293E-07      3.12    <-- DIS
     199       3.45081535       3.45081785      -7.259E-07      3.13    <-- DIS
     200       3.45081429       3.45081678      -7.220E-07      3.15    <-- DIS
     201       3.45081329       3.45081576      -7.177E-07      3.16    <-- DIS
     202       3.45081232       3.45081478      -7.129E-07      3.18    <-- DIS
     203       3.45081141       3.45081385      -7.078E-07      3.19    <-- DIS
     204       3.45081053       3.45081296      -7.023E-07      3.21    <-- DIS
     205       3.45080970       3.45081210      -6.964E-07      3.22    <-- DIS
     206       3.45080890       3.45081129      -6.903E-07      3.24    <-- DIS
     207       3.45080815       3.45081051      -6.839E-07      3.26    <-- DIS
     208       3.45080742       3.45080976      -6.772E-07      3.27    <-- DIS
     209       3.45080673       3.45080904      -6.704E-07      3.29    <-- DIS
     210       3.45080607       3.45080836      -6.633E-07      3.30    <-- DIS
     211       3.45080544       3.45080771      -6.560E-07      3.32    <-- DIS
     212       3.45080484       3.45080708      -6.486E-07      3.33    <-- DIS
     213       3.45080427       3.45080649      -6.410E-07      3.35    <-- DIS
     214       3.45080373       3.45080591      -6.332E-07      3.36    <-- DIS
     215       3.45080321       3.45080537      -6.254E-07      3.38    <-- DIS
     216       3.45080271       3.45080485      -6.175E-07      3.39    <-- DIS
     217       3.45080224       3.45080435      -6.094E-07      3.41    <-- DIS
     218       3.45080179       3.45080387      -6.014E-07      3.42    <-- DIS
     219       3.45080136       3.45080341      -5.932E-07      3.44    <-- DIS
     220       3.45080096       3.45080297      -5.850E-07      3.45    <-- DIS
     221       3.45080057       3.45080256      -5.768E-07      3.47    <-- DIS
     222       3.45080019       3.45080216      -5.685E-07      3.48    <-- DIS
     223       3.45079984       3.45080177      -5.602E-07      3.50    <-- DIS
     224       3.45079950       3.45080141      -5.519E-07      3.51    <-- DIS
     225       3.45079918       3.45080106      -5.436E-07      3.53    <-- DIS
     226       3.45079888       3.45080072      -5.354E-07      3.54    <-- DIS
     227       3.45079859       3.45080040      -5.271E-07      3.56    <-- DIS
     228       3.45079831       3.45080010      -5.189E-07      3.57    <-- DIS
     229       3.45079804       3.45079981      -5.107E-07      3.59    <-- DIS
     230       3.45079779       3.45079953      -5.025E-07      3.60    <-- DIS
     231       3.45079755       3.45079926      -4.944E-07      3.62    <-- DIS
     232       3.45079733       3.45079900      -4.863E-07      3.63    <-- DIS
     233       3.45079711       3.45079876      -4.783E-07      3.65    <-- DIS
     234       3.45079690       3.45079852      -4.703E-07      3.66    <-- DIS
     235       3.45079670       3.45079830      -4.624E-07      3.68    <-- DIS
     236       3.45079652       3.45079809      -4.545E-07      3.70    <-- DIS
     237       3.45079634       3.45079788      -4.468E-07      3.71    <-- DIS
     238       3.45079617       3.45079769      -4.391E-07      3.73    <-- DIS
     239       3.45079601       3.45079750      -4.314E-07      3.74    <-- DIS
     240       3.45079586       3.45079732      -4.239E-07      3.76    <-- DIS
     241       3.45079571       3.45079715      -4.164E-07      3.77    <-- DIS
     242       3.45079557       3.45079698      -4.090E-07      3.79    <-- DIS
     243       3.45079544       3.45079683      -4.017E-07      3.80    <-- DIS
     244       3.45079532       3.45079668      -3.945E-07      3.82    <-- DIS
     245       3.45079520       3.45079653      -3.873E-07      3.83    <-- DIS
     246       3.45079508       3.45079640      -3.803E-07      3.85    <-- DIS
     247       3.45079498       3.45079626      -3.733E-07      3.86    <-- DIS
     248       3.45079487       3.45079614      -3.664E-07      3.88    <-- DIS
     249       3.45079478       3.45079602      -3.597E-07      3.89    <-- DIS
     250       3.45079469       3.45079590      -3.530E-07      3.91    <-- DIS
     251       3.45079460       3.45079579      -3.464E-07      3.92    <-- DIS
     252       3.45079452       3.45079569      -3.399E-07      3.94    <-- DIS
     253       3.45079444       3.45079559      -3.334E-07      3.95    <-- DIS
     254       3.45079436       3.45079549      -3.271E-07      3.97    <-- DIS
     255       3.45079429       3.45079540      -3.209E-07      3.98    <-- DIS
     256       3.45079423       3.45079531      -3.148E-07      4.00    <-- DIS
     257       3.45079416       3.45079523      -3.087E-07      4.01    <-- DIS
     258       3.45079410       3.45079515      -3.028E-07      4.03    <-- DIS
     259       3.45079405       3.45079507      -2.969E-07      4.04    <-- DIS
     260       3.45079399       3.45079500      -2.912E-07      4.06    <-- DIS
     261       3.45079394       3.45079493      -2.855E-07      4.08    <-- DIS
     262       3.45079389       3.45079486      -2.799E-07      4.09    <-- DIS
     263       3.45079385       3.45079479      -2.744E-07      4.11    <-- DIS
     264       3.45079380       3.45079473      -2.690E-07      4.12    <-- DIS
     265       3.45079376       3.45079467      -2.637E-07      4.14    <-- DIS
     266       3.45079372       3.45079462      -2.585E-07      4.15    <-- DIS
     267       3.45079369       3.45079456      -2.533E-07      4.17    <-- DIS
     268       3.45079365       3.45079451      -2.483E-07      4.18    <-- DIS
     269       3.45079362       3.45079446      -2.433E-07      4.20    <-- DIS
     270       3.45079359       3.45079441      -2.385E-07      4.21    <-- DIS
     271       3.45079356       3.45079437      -2.337E-07      4.23    <-- DIS
     272       3.45079353       3.45079432      -2.290E-07      4.24    <-- DIS
     273       3.45079351       3.45079428      -2.244E-07      4.26    <-- DIS
     274       3.45079348       3.45079424      -2.198E-07      4.27    <-- DIS
     275       3.45079346       3.45079421      -2.154E-07      4.29    <-- DIS
     276       3.45079344       3.45079417      -2.110E-07      4.30    <-- DIS
     277       3.45079342       3.45079413      -2.067E-07      4.32    <-- DIS
     278       3.45079340       3.45079410      -2.025E-07      4.34    <-- DIS
     279       3.45079338       3.45079407      -1.984E-07      4.35    <-- DIS
     280       3.45079337       3.45079404      -1.943E-07      4.37    <-- DIS
     281       3.45079335       3.45079401      -1.903E-07      4.38    <-- DIS
     282       3.45079334       3.45079398      -1.864E-07      4.40    <-- DIS
     283       3.45079332       3.45079395      -1.826E-07      4.41    <-- DIS
     284       3.45079331       3.45079393      -1.788E-07      4.43    <-- DIS
     285       3.45079330       3.45079390      -1.751E-07      4.44    <-- DIS
     286       3.45079329       3.45079388      -1.715E-07      4.46    <-- DIS
     287       3.45079328       3.45079386      -1.679E-07      4.47    <-- DIS
     288       3.45079327       3.45079384      -1.644E-07      4.49    <-- DIS
     289       3.45079326       3.45079382      -1.610E-07      4.50    <-- DIS
     290       3.45079325       3.45079380      -1.576E-07      4.52    <-- DIS
     291       3.45079325       3.45079378      -1.544E-07      4.53    <-- DIS
     292       3.45079324       3.45079376      -1.511E-07      4.55    <-- DIS
     293       3.45079323       3.45079374      -1.480E-07      4.56    <-- DIS
     294       3.45079323       3.45079373      -1.449E-07      4.58    <-- DIS
     295       3.45079322       3.45079371      -1.418E-07      4.59    <-- DIS
     296       3.45079322       3.45079370      -1.389E-07      4.61    <-- DIS
     297       3.45079321       3.45079368      -1.359E-07      4.62    <-- DIS
     298       3.45079321       3.45079367      -1.331E-07      4.64    <-- DIS
     299       3.45079320       3.45079365      -1.303E-07      4.65    <-- DIS
     300       3.45079320       3.45079364      -1.275E-07      4.67    <-- DIS
     301       3.45079320       3.45079363      -1.248E-07      4.69    <-- DIS
     302       3.45079320       3.45079362      -1.222E-07      4.70    <-- DIS
     303       3.45079319       3.45079361      -1.196E-07      4.72    <-- DIS
     304       3.45079319       3.45079360      -1.171E-07      4.73    <-- DIS
     305       3.45079319       3.45079359      -1.146E-07      4.75    <-- DIS
     306       3.45079319       3.45079358      -1.121E-07      4.76    <-- DIS
     307       3.45079319       3.45079357      -1.098E-07      4.78    <-- DIS
     308       3.45079319       3.45079356      -1.074E-07      4.79    <-- DIS
     309       3.45079319       3.45079355      -1.051E-07      4.81    <-- DIS
     310       3.45079319       3.45079354      -1.029E-07      4.82    <-- DIS
     311       3.45079318       3.45079353      -1.007E-07      4.84    <-- DIS
     312       3.45079318       3.45079352      -9.856E-08      4.85    <-- DIS
     313       3.45079318       3.45079352      -9.645E-08      4.87    <-- DIS
     314       3.45079318       3.45079351      -9.439E-08      4.88    <-- DIS
     315       3.45079319       3.45079350      -9.237E-08      4.90    <-- DIS
     316       3.45079319       3.45079350      -9.039E-08      4.91    <-- DIS
     317       3.45079319       3.45079349      -8.846E-08      4.93    <-- DIS
     318       3.45079319       3.45079349      -8.656E-08      4.94    <-- DIS
     319       3.45079319       3.45079348      -8.470E-08      4.96    <-- DIS
     320       3.45079319       3.45079347      -8.288E-08      4.97    <-- DIS
     321       3.45079319       3.45079347      -8.110E-08      4.99    <-- DIS
     322       3.45079319       3.45079346      -7.936E-08      5.00    <-- DIS
     323       3.45079319       3.45079346      -7.765E-08      5.02    <-- DIS
     324       3.45079319       3.45079346      -7.598E-08      5.04    <-- DIS
     325       3.45079319       3.45079345      -7.435E-08      5.05    <-- DIS
     326       3.45079320       3.45079345      -7.274E-08      5.07    <-- DIS
     327       3.45079320       3.45079344      -7.118E-08      5.08    <-- DIS
     328       3.45079320       3.45079344      -6.964E-08      5.10    <-- DIS
     329       3.45079320       3.45079344      -6.814E-08      5.11    <-- DIS
     330       3.45079320       3.45079343      -6.667E-08      5.13    <-- DIS
     331       3.45079320       3.45079343      -6.523E-08      5.14    <-- DIS
     332       3.45079321       3.45079343      -6.382E-08      5.16    <-- DIS
     333       3.45079321       3.45079342      -6.244E-08      5.17    <-- DIS
     334       3.45079321       3.45079342      -6.108E-08      5.19    <-- DIS
     335       3.45079321       3.45079342      -5.976E-08      5.20    <-- DIS
     336       3.45079321       3.45079341      -5.847E-08      5.22    <-- DIS
     337       3.45079321       3.45079341      -5.720E-08      5.23    <-- DIS
     338       3.45079322       3.45079341      -5.596E-08      5.25    <-- DIS
     339       3.45079322       3.45079341      -5.475E-08      5.26    <-- DIS
     340       3.45079322       3.45079341      -5.356E-08      5.28    <-- DIS
     341       3.45079322       3.45079340      -5.240E-08      5.29    <-- DIS
     342       3.45079322       3.45079340      -5.126E-08      5.31    <-- DIS
     343       3.45079323       3.45079340      -5.015E-08      5.32    <-- DIS
     344       3.45079323       3.45079340      -4.906E-08      5.34    <-- DIS
     345       3.45079323       3.45079340      -4.799E-08      5.35    <-- DIS
     346       3.45079323       3.45079339      -4.695E-08      5.37    <-- DIS
     347       3.45079323       3.45079339      -4.593E-08      5.38    <-- DIS
     348       3.45079323       3.45079339      -4.493E-08      5.40    <-- DIS
     349       3.45079324       3.45079339      -4.396E-08      5.42    <-- DIS
     350       3.45079324       3.45079339      -4.300E-08      5.43    <-- DIS
     351       3.45079324       3.45079339      -4.206E-08      5.45    <-- DIS
     352       3.45079324       3.45079338      -4.115E-08      5.46    <-- DIS
     353       3.45079324       3.45079338      -4.025E-08      5.48    <-- DIS
     354       3.45079325       3.45079338      -3.937E-08      5.49    <-- DIS
     355       3.45079325       3.45079338      -3.852E-08      5.51    <-- DIS
     356       3.45079325       3.45079338      -3.768E-08      5.52    <-- DIS
     357       3.45079325       3.45079338      -3.686E-08      5.54    <-- DIS
     358       3.45079325       3.45079338      -3.605E-08      5.55    <-- DIS
     359       3.45079325       3.45079338      -3.527E-08      5.57    <-- DIS
     360       3.45079326       3.45079338      -3.450E-08      5.58    <-- DIS
     361       3.45079326       3.45079337      -3.375E-08      5.60    <-- DIS
     362       3.45079326       3.45079337      -3.301E-08      5.61    <-- DIS
     363       3.45079326       3.45079337      -3.229E-08      5.63    <-- DIS
     364       3.45079326       3.45079337      -3.158E-08      5.64    <-- DIS
     365       3.45079326       3.45079337      -3.089E-08      5.66    <-- DIS
     366       3.45079327       3.45079337      -3.022E-08      5.67    <-- DIS
     367       3.45079327       3.45079337      -2.956E-08      5.69    <-- DIS
     368       3.45079327       3.45079337      -2.891E-08      5.71    <-- DIS
     369       3.45079327       3.45079337      -2.828E-08      5.72    <-- DIS
     370       3.45079327       3.45079337      -2.767E-08      5.74    <-- DIS
     371       3.45079327       3.45079337      -2.706E-08      5.75    <-- DIS
     372       3.45079327       3.45079337      -2.647E-08      5.77    <-- DIS
     373       3.45079328       3.45079337      -2.589E-08      5.78    <-- DIS
     374       3.45079328       3.45079337      -2.533E-08      5.80    <-- DIS
     375       3.45079328       3.45079336      -2.477E-08      5.81    <-- DIS
     376       3.45079328       3.45079336      -2.423E-08      5.83    <-- DIS
     377       3.45079328       3.45079336      -2.370E-08      5.84    <-- DIS
     378       3.45079328       3.45079336      -2.318E-08      5.86    <-- DIS
     379       3.45079328       3.45079336      -2.268E-08      5.87    <-- DIS
     380       3.45079329       3.45079336      -2.218E-08      5.89    <-- DIS
     381       3.45079329       3.45079336      -2.169E-08      5.90    <-- DIS
     382       3.45079329       3.45079336      -2.122E-08      5.92    <-- DIS
     383       3.45079329       3.45079336      -2.076E-08      5.93    <-- DIS
     384       3.45079329       3.45079336      -2.030E-08      5.95    <-- DIS
     385       3.45079329       3.45079336      -1.986E-08      5.96    <-- DIS
     386       3.45079329       3.45079336      -1.942E-08      5.98    <-- DIS
     387       3.45079329       3.45079336      -1.900E-08      6.00    <-- DIS
     388       3.45079330       3.45079336      -1.858E-08      6.01    <-- DIS
     389       3.45079330       3.45079336      -1.818E-08      6.03    <-- DIS
     390       3.45079330       3.45079336      -1.778E-08      6.04    <-- DIS
     391       3.45079330       3.45079336      -1.739E-08      6.06    <-- DIS
     392       3.45079330       3.45079336      -1.701E-08      6.08    <-- DIS
     393       3.45079330       3.45079336      -1.664E-08      6.09    <-- DIS
     394       3.45079330       3.45079336      -1.627E-08      6.11    <-- DIS
     395       3.45079330       3.45079336      -1.592E-08      6.12    <-- DIS
     396       3.45079330       3.45079336      -1.557E-08      6.14    <-- DIS
     397       3.45079330       3.45079336      -1.523E-08      6.15    <-- DIS
     398       3.45079331       3.45079336      -1.489E-08      6.17    <-- DIS
     399       3.45079331       3.45079336      -1.457E-08      6.18    <-- DIS
     400       3.45079331       3.45079336      -1.425E-08      6.20    <-- DIS
     401       3.45079331       3.45079336      -1.394E-08      6.21    <-- DIS
     402       3.45079331       3.45079336      -1.363E-08      6.23    <-- DIS
     403       3.45079331       3.45079336      -1.333E-08      6.24    <-- DIS
     404       3.45079331       3.45079336      -1.304E-08      6.26    <-- DIS
     405       3.45079331       3.45079336      -1.276E-08      6.27    <-- DIS
     406       3.45079331       3.45079336      -1.248E-08      6.29    <-- DIS
     407       3.45079331       3.45079336      -1.220E-08      6.30    <-- DIS
     408       3.45079331       3.45079336      -1.194E-08      6.32    <-- DIS
     409       3.45079331       3.45079336      -1.167E-08      6.33    <-- DIS
     410       3.45079332       3.45079336      -1.142E-08      6.35    <-- DIS
     411       3.45079332       3.45079335      -1.117E-08      6.36    <-- DIS
     412       3.45079332       3.45079335      -1.092E-08      6.38    <-- DIS
     413       3.45079332       3.45079335      -1.069E-08      6.39    <-- DIS
     414       3.45079332       3.45079335      -1.045E-08      6.41    <-- DIS
     415       3.45079332       3.45079335      -1.022E-08      6.42    <-- DIS
     416       3.45079332       3.45079335      -9.999E-09      6.44    <-- DIS
     417       3.45079332       3.45079335      -9.780E-09      6.45    <-- DIS
     418       3.45079332       3.45079335      -9.566E-09      6.47    <-- DIS
     419       3.45079332       3.45079335      -9.357E-09      6.48    <-- DIS
     420       3.45079332       3.45079335      -9.152E-09      6.50    <-- DIS
     421       3.45079332       3.45079335      -8.952E-09      6.51    <-- DIS
     422       3.45079332       3.45079335      -8.756E-09      6.53    <-- DIS
     423       3.45079332       3.45079335      -8.564E-09      6.55    <-- DIS
     424       3.45079332       3.45079335      -8.377E-09      6.56    <-- DIS
     425       3.45079333       3.45079335      -8.194E-09      6.58    <-- DIS
     426       3.45079333       3.45079335      -8.014E-09      6.59    <-- DIS
     427       3.45079333       3.45079335      -7.839E-09      6.61    <-- DIS
     428       3.45079333       3.45079335      -7.668E-09      6.62    <-- DIS
     429       3.45079333       3.45079335      -7.500E-09      6.64    <-- DIS
     430       3.45079333       3.45079335      -7.336E-09      6.65    <-- DIS
     431       3.45079333       3.45079335      -7.176E-09      6.67    <-- DIS
     432       3.45079333       3.45079335      -7.019E-09      6.68    <-- DIS
     433       3.45079333       3.45079335      -6.865E-09      6.70    <-- DIS
     434       3.45079333       3.45079335      -6.715E-09      6.71    <-- DIS
     435       3.45079333       3.45079335      -6.568E-09      6.73    <-- DIS
     436       3.45079333       3.45079335      -6.425E-09      6.74    <-- DIS
     437       3.45079333       3.45079335      -6.284E-09      6.76    <-- DIS
     438       3.45079333       3.45079335      -6.147E-09      6.77    <-- DIS
     439       3.45079333       3.45079335      -6.012E-09      6.79    <-- DIS
     440       3.45079333       3.45079335      -5.881E-09      6.80    <-- DIS
     441       3.45079333       3.45079335      -5.753E-09      6.82    <-- DIS
     442       3.45079333       3.45079335      -5.627E-09      6.83    <-- DIS
     443       3.45079333       3.45079335      -5.504E-09      6.85    <-- DIS
     444       3.45079333       3.45079335      -5.384E-09      6.87    <-- DIS
     445       3.45079333       3.45079335      -5.266E-09      6.88    <-- DIS
     446       3.45079333       3.45079335      -5.151E-09      6.90    <-- DIS
     447       3.45079334       3.45079335      -5.039E-09      6.91    <-- DIS
     448       3.45079334       3.45079335      -4.929E-09      6.93    <-- DIS
     449       3.45079334       3.45079335      -4.821E-09      6.94    <-- DIS
     450       3.45079334       3.45079335      -4.716E-09      6.98    <-- DIS
     451       3.45079334       3.45079335      -4.613E-09      7.01    <-- DIS
     452       3.45079334       3.45079335      -4.512E-09      7.03    <-- DIS
     453       3.45079334       3.45079335      -4.414E-09      7.04    <-- DIS
     454       3.45079334       3.45079335      -4.317E-09      7.06    <-- DIS
     455       3.45079334       3.45079335      -4.223E-09      7.07    <-- DIS
     456       3.45079334       3.45079335      -4.131E-09      7.09    <-- DIS
     457       3.45079334       3.45079335      -4.041E-09      7.10    <-- DIS
     458       3.45079334       3.45079335      -3.953E-09      7.12    <-- DIS
     459       3.45079334       3.45079335      -3.866E-09      7.13    <-- DIS
     460       3.45079334       3.45079335      -3.782E-09      7.15    <-- DIS
     461       3.45079334       3.45079335      -3.700E-09      7.16    <-- DIS
     462       3.45079334       3.45079335      -3.619E-09      7.18    <-- DIS
     463       3.45079334       3.45079335      -3.540E-09      7.19    <-- DIS
     464       3.45079334       3.45079335      -3.463E-09      7.21    <-- DIS
     465       3.45079334       3.45079335      -3.388E-09      7.22    <-- DIS
     466       3.45079334       3.45079335      -3.314E-09      7.24    <-- DIS
     467       3.45079334       3.45079335      -3.242E-09      7.25    <-- DIS
     468       3.45079334       3.45079335      -3.171E-09      7.27    <-- DIS
     469       3.45079334       3.45079335      -3.102E-09      7.28    <-- DIS
     470       3.45079334       3.45079335      -3.034E-09      7.30    <-- DIS
     471       3.45079334       3.45079335      -2.968E-09      7.32    <-- DIS
     472       3.45079334       3.45079335      -2.904E-09      7.33    <-- DIS
     473       3.45079334       3.45079335      -2.840E-09      7.35    <-- DIS
     474       3.45079334       3.45079335      -2.779E-09      7.36    <-- DIS
     475       3.45079334       3.45079335      -2.718E-09      7.38    <-- DIS
[...]
  WF centre and spread    2  ( -0.004172,  5.000000, -5.000000 )     0.86273756
  WF centre and spread    3  (  1.268917,  5.000000,  5.000000 )     0.86365059
  WF centre and spread    4  (  1.268909, -5.000000, -5.000000 )     0.86273825
  Sum of centres and spreads (  2.529488, 10.000000,-10.000000 )     3.45277605
 
     35    -0.117E-08     0.0002149684        3.4527760528       9.87  <-- CONV
        O_D=      0.0000000 O_OD=      0.0019827 O_TOT=      3.4527761 <-- SPRD
 Delta: O_D= -0.1173783E-08 O_OD=  0.7229989E-12 O_TOT= -0.1173060E-08 <-- DLTA
 ------------------------------------------------------------------------------
 Cycle:     36
  WF centre and spread    1  ( -0.004165,  5.000000, -5.000000 )     0.86364965
  WF centre and spread    2  ( -0.004172,  5.000000, -5.000000 )     0.86273756
  WF centre and spread    3  (  1.268917,  5.000000,  5.000000 )     0.86365059
  WF centre and spread    4  (  1.268909, -5.000000, -5.000000 )     0.86273825
  Sum of centres and spreads (  2.529488, 10.000000,-10.000000 )     3.45277605
 
     36    -0.137E-08     0.0001794588        3.4527760514       9.87  <-- CONV
        O_D=      0.0000000 O_OD=      0.0019827 O_TOT=      3.4527761 <-- SPRD
 Delta: O_D= -0.1457716E-08 O_OD=  0.8609104E-10 O_TOT= -0.1371625E-08 <-- DLTA
 ------------------------------------------------------------------------------
 Cycle:     37
  WF centre and spread    1  ( -0.004165,  5.000000, -5.000000 )     0.86364964
  WF centre and spread    2  ( -0.004172,  5.000000, -5.000000 )     0.86273756
  WF centre and spread    3  (  1.268917,  5.000000,  5.000000 )     0.86365059
  WF centre and spread    4  (  1.268909, -5.000000, -5.000000 )     0.86273825
  Sum of centres and spreads (  2.529488, 10.000000,-10.000000 )     3.45277605
 
     37    -0.268E-08     0.0002420903        3.4527760488       9.87  <-- CONV
        O_D=      0.0000000 O_OD=      0.0019827 O_TOT=      3.4527760 <-- SPRD
 Delta: O_D= -0.2672093E-08 O_OD= -0.3188939E-11 O_TOT= -0.2675282E-08 <-- DLTA
 ------------------------------------------------------------------------------
 Cycle:     38
  WF centre and spread    1  ( -0.004165,  5.000000, -5.000000 )     0.86364964
  WF centre and spread    2  ( -0.004172,  5.000000, -5.000000 )     0.86273756
  WF centre and spread    3  (  1.268917,  5.000000,  5.000000 )     0.86365059
  WF centre and spread    4  (  1.268909, -5.000000, -5.000000 )     0.86273825
  Sum of centres and spreads (  2.529488, 10.000000,-10.000000 )     3.45277605
 
     38    -0.203E-08     0.0002468479        3.4527760467       9.87  <-- CONV
        O_D=      0.0000000 O_OD=      0.0019827 O_TOT=      3.4527760 <-- SPRD
 Delta: O_D= -0.1972435E-08 O_OD= -0.5694871E-10 O_TOT= -0.2029384E-08 <-- DLTA
 ------------------------------------------------------------------------------
 Cycle:     39
  WF centre and spread    1  ( -0.004165,  5.000000, -5.000000 )     0.86364964
  WF centre and spread    2  ( -0.004172,  5.000000, -5.000000 )     0.86273756
  WF centre and spread    3  (  1.268917,  5.000000,  5.000000 )     0.86365060
  WF centre and spread    4  (  1.268909, -5.000000, -5.000000 )     0.86273825
  Sum of centres and spreads (  2.529488, 10.000000,-10.000000 )     3.45277604
 
     39    -0.206E-08     0.0002369772        3.4527760447       9.88  <-- CONV
        O_D=      0.0000000 O_OD=      0.0019827 O_TOT=      3.4527760 <-- SPRD
 Delta: O_D= -0.2014606E-08 O_OD= -0.4589552E-10 O_TOT= -0.2060502E-08 <-- DLTA
 ------------------------------------------------------------------------------
 Cycle:     40
  WF centre and spread    1  ( -0.004165,  5.000000, -5.000000 )     0.86364964
  WF centre and spread    2  ( -0.004172,  5.000000, -5.000000 )     0.86273756
  WF centre and spread    3  (  1.268917,  5.000000,  5.000000 )     0.86365060
  WF centre and spread    4  (  1.268909, -5.000000, -5.000000 )     0.86273825
  Sum of centres and spreads (  2.529488, 10.000000,-10.000000 )     3.45277604
 
     40    -0.115E-08     0.0001896666        3.4527760435       9.88  <-- CONV
        O_D=      0.0000000 O_OD=      0.0019827 O_TOT=      3.4527760 <-- SPRD
 Delta: O_D= -0.1153985E-08 O_OD=  0.7531871E-11 O_TOT= -0.1146454E-08 <-- DLTA
 ------------------------------------------------------------------------------
 Cycle:     41
  WF centre and spread    1  ( -0.004165,  5.000000, -5.000000 )     0.86364964
  WF centre and spread    2  ( -0.004172,  5.000000, -5.000000 )     0.86273756
  WF centre and spread    3  (  1.268917,  5.000000,  5.000000 )     0.86365060
  WF centre and spread    4  (  1.268909, -5.000000, -5.000000 )     0.86273825
  Sum of centres and spreads (  2.529488, 10.000000,-10.000000 )     3.45277604
 
     41    -0.909E-09     0.0002267750        3.4527760426       9.88  <-- CONV
        O_D=      0.0000000 O_OD=      0.0019827 O_TOT=      3.4527760 <-- SPRD
 Delta: O_D= -0.8806523E-09 O_OD= -0.2823765E-10 O_TOT= -0.9088899E-09 <-- DLTA
 ------------------------------------------------------------------------------
 Cycle:     42
  WF centre and spread    1  ( -0.004165,  5.000000, -5.000000 )     0.86364964
  WF centre and spread    2  ( -0.004172,  5.000000, -5.000000 )     0.86273756
  WF centre and spread    3  (  1.268917,  5.000000,  5.000000 )     0.86365060
  WF centre and spread    4  (  1.268909, -5.000000, -5.000000 )     0.86273825
  Sum of centres and spreads (  2.529488, 10.000000,-10.000000 )     3.45277604
 
     42    -0.113E-08     0.0001558498        3.4527760415       9.88  <-- CONV
        O_D=      0.0000000 O_OD=      0.0019827 O_TOT=      3.4527760 <-- SPRD
 Delta: O_D= -0.1145995E-08 O_OD=  0.1351395E-10 O_TOT= -0.1132481E-08 <-- DLTA
 ------------------------------------------------------------------------------
 Cycle:     43
  WF centre and spread    1  ( -0.004165,  5.000000, -5.000000 )     0.86364963
  WF centre and spread    2  ( -0.004172,  5.000000, -5.000000 )     0.86273756
  WF centre and spread    3  (  1.268917,  5.000000,  5.000000 )     0.86365060
  WF centre and spread    4  (  1.268909, -5.000000, -5.000000 )     0.86273825
  Sum of centres and spreads (  2.529488, 10.000000,-10.000000 )     3.45277604
 
     43    -0.789E-09     0.0001621533        3.4527760407       9.88  <-- CONV
        O_D=      0.0000000 O_OD=      0.0019827 O_TOT=      3.4527760 <-- SPRD
 Delta: O_D= -0.7906780E-09 O_OD=  0.1475134E-11 O_TOT= -0.7892034E-09 <-- DLTA
 ------------------------------------------------------------------------------
 Cycle:     44
  WF centre and spread    1  ( -0.004165,  5.000000, -5.000000 )     0.86364963
  WF centre and spread    2  ( -0.004172,  5.000000, -5.000000 )     0.86273756
  WF centre and spread    3  (  1.268917,  5.000000,  5.000000 )     0.86365060
  WF centre and spread    4  (  1.268909, -5.000000, -5.000000 )     0.86273825
  Sum of centres and spreads (  2.529488, 10.000000,-10.000000 )     3.45277604
 
     44    -0.636E-09     0.0001373619        3.4527760401       9.88  <-- CONV
        O_D=      0.0000000 O_OD=      0.0019827 O_TOT=      3.4527760 <-- SPRD
 Delta: O_D= -0.6154967E-09 O_OD= -0.2033154E-10 O_TOT= -0.6358278E-09 <-- DLTA
 ------------------------------------------------------------------------------
 Cycle:     45
  WF centre and spread    1  ( -0.004165,  5.000000, -5.000000 )     0.86364963
  WF centre and spread    2  ( -0.004172,  5.000000, -5.000000 )     0.86273756
  WF centre and spread    3  (  1.268917,  5.000000,  5.000000 )     0.86365060
  WF centre and spread    4  (  1.268909, -5.000000, -5.000000 )     0.86273825
  Sum of centres and spreads (  2.529488, 10.000000,-10.000000 )     3.45277604
 
     45    -0.249E-09     0.0001054957        3.4527760398       9.88  <-- CONV
        O_D=      0.0000000 O_OD=      0.0019827 O_TOT=      3.4527760 <-- SPRD
 Delta: O_D= -0.2351263E-09 O_OD= -0.1400315E-10 O_TOT= -0.2491296E-09 <-- DLTA
 ------------------------------------------------------------------------------
 Cycle:     46
  WF centre and spread    1  ( -0.004165,  5.000000, -5.000000 )     0.86364963
  WF centre and spread    2  ( -0.004172,  5.000000, -5.000000 )     0.86273756
  WF centre and spread    3  (  1.268917,  5.000000,  5.000000 )     0.86365060
  WF centre and spread    4  (  1.268909, -5.000000, -5.000000 )     0.86273825
  Sum of centres and spreads (  2.529488, 10.000000,-10.000000 )     3.45277604
 
     46    -0.196E-09     0.0000748023        3.4527760396       9.89  <-- CONV
        O_D=      0.0000000 O_OD=      0.0019827 O_TOT=      3.4527760 <-- SPRD
 Delta: O_D= -0.1946805E-09 O_OD= -0.1782057E-11 O_TOT= -0.1964624E-09 <-- DLTA
 ------------------------------------------------------------------------------
 Cycle:     47
  WF centre and spread    1  ( -0.004165,  5.000000, -5.000000 )     0.86364963
  WF centre and spread    2  ( -0.004172,  5.000000, -5.000000 )     0.86273756
  WF centre and spread    3  (  1.268917,  5.000000,  5.000000 )     0.86365060
  WF centre and spread    4  (  1.268909, -5.000000, -5.000000 )     0.86273825
  Sum of centres and spreads (  2.529488, 10.000000,-10.000000 )     3.45277604
 
     47    -0.164E-09     0.0000822170        3.4527760394       9.89  <-- CONV
        O_D=      0.0000000 O_OD=      0.0019827 O_TOT=      3.4527760 <-- SPRD
 Delta: O_D= -0.1626669E-09 O_OD= -0.9577421E-12 O_TOT= -0.1636247E-09 <-- DLTA
 ------------------------------------------------------------------------------
 Cycle:     48
  WF centre and spread    1  ( -0.004165,  5.000000, -5.000000 )     0.86364963
  WF centre and spread    2  ( -0.004172,  5.000000, -5.000000 )     0.86273756
  WF centre and spread    3  (  1.268917,  5.000000,  5.000000 )     0.86365060
  WF centre and spread    4  (  1.268909, -5.000000, -5.000000 )     0.86273825
  Sum of centres and spreads (  2.529488, 10.000000,-10.000000 )     3.45277604
 
     48    -0.183E-09     0.0000669375        3.4527760393       9.89  <-- CONV
        O_D=      0.0000000 O_OD=      0.0019827 O_TOT=      3.4527760 <-- SPRD
 Delta: O_D= -0.1903834E-09 O_OD=  0.7865665E-11 O_TOT= -0.1825180E-09 <-- DLTA
 ------------------------------------------------------------------------------
 Cycle:     49
  WF centre and spread    1  ( -0.004165,  5.000000, -5.000000 )     0.86364963
  WF centre and spread    2  ( -0.004172,  5.000000, -5.000000 )     0.86273756
  WF centre and spread    3  (  1.268917,  5.000000,  5.000000 )     0.86365060
  WF centre and spread    4  (  1.268909, -5.000000, -5.000000 )     0.86273825
  Sum of centres and spreads (  2.529488, 10.000000,-10.000000 )     3.45277604
 
     49    -0.387E-09     0.0000888930        3.4527760389       9.89  <-- CONV
        O_D=      0.0000000 O_OD=      0.0019827 O_TOT=      3.4527760 <-- SPRD
 Delta: O_D= -0.3875284E-09 O_OD=  0.2847713E-12 O_TOT= -0.3872436E-09 <-- DLTA
 ------------------------------------------------------------------------------
 Cycle:     50
  WF centre and spread    1  ( -0.004165,  5.000000, -5.000000 )     0.86364963
  WF centre and spread    2  ( -0.004172,  5.000000, -5.000000 )     0.86273756
  WF centre and spread    3  (  1.268917,  5.000000,  5.000000 )     0.86365060
  WF centre and spread    4  (  1.268909, -5.000000, -5.000000 )     0.86273825
  Sum of centres and spreads (  2.529488, 10.000000,-10.000000 )     3.45277604
 
     50    -0.295E-09     0.0000938482        3.4527760386       9.89  <-- CONV
        O_D=      0.0000000 O_OD=      0.0019827 O_TOT=      3.4527760 <-- SPRD
 Delta: O_D= -0.2853594E-09 O_OD= -0.9884392E-11 O_TOT= -0.2952438E-09 <-- DLTA
 ------------------------------------------------------------------------------
 Cycle:     51
  WF centre and spread    1  ( -0.004165,  5.000000, -5.000000 )     0.86364963
  WF centre and spread    2  ( -0.004172,  5.000000, -5.000000 )     0.86273756
  WF centre and spread    3  (  1.268917,  5.000000,  5.000000 )     0.86365061
  WF centre and spread    4  (  1.268909, -5.000000, -5.000000 )     0.86273825
  Sum of centres and spreads (  2.529488, 10.000000,-10.000000 )     3.45277604
 
     51    -0.276E-09     0.0000881010        3.4527760383       9.89  <-- CONV
        O_D=      0.0000000 O_OD=      0.0019827 O_TOT=      3.4527760 <-- SPRD
 Delta: O_D= -0.2680592E-09 O_OD= -0.7913295E-11 O_TOT= -0.2759726E-09 <-- DLTA
 ------------------------------------------------------------------------------
 Cycle:     52
  WF centre and spread    1  ( -0.004165,  5.000000, -5.000000 )     0.86364962
  WF centre and spread    2  ( -0.004172,  5.000000, -5.000000 )     0.86273756
  WF centre and spread    3  (  1.268917,  5.000000,  5.000000 )     0.86365061
  WF centre and spread    4  (  1.268909, -5.000000, -5.000000 )     0.86273825
  Sum of centres and spreads (  2.529488, 10.000000,-10.000000 )     3.45277604
 
     52    -0.160E-09     0.0000706911        3.4527760381       9.89  <-- CONV
        O_D=      0.0000000 O_OD=      0.0019827 O_TOT=      3.4527760 <-- SPRD
 Delta: O_D= -0.1605989E-09 O_OD=  0.8396361E-12 O_TOT= -0.1597593E-09 <-- DLTA
 ------------------------------------------------------------------------------
 Cycle:     53
  WF centre and spread    1  ( -0.004165,  5.000000, -5.000000 )     0.86364962
  WF centre and spread    2  ( -0.004172,  5.000000, -5.000000 )     0.86273756
  WF centre and spread    3  (  1.268917,  5.000000,  5.000000 )     0.86365061
  WF centre and spread    4  (  1.268909, -5.000000, -5.000000 )     0.86273825
  Sum of centres and spreads (  2.529488, 10.000000,-10.000000 )     3.45277604
 
     53    -0.129E-09     0.0000858668        3.4527760380       9.90  <-- CONV
        O_D=      0.0000000 O_OD=      0.0019827 O_TOT=      3.4527760 <-- SPRD
 Delta: O_D= -0.1239110E-09 O_OD= -0.4825170E-11 O_TOT= -0.1287357E-09 <-- DLTA
 ------------------------------------------------------------------------------
 Cycle:     54
  WF centre and spread    1  ( -0.004165,  5.000000, -5.000000 )     0.86364962
  WF centre and spread    2  ( -0.004172,  5.000000, -5.000000 )     0.86273756
  WF centre and spread    3  (  1.268917,  5.000000,  5.000000 )     0.86365061
  WF centre and spread    4  (  1.268909, -5.000000, -5.000000 )     0.86273825
  Sum of centres and spreads (  2.529488, 10.000000,-10.000000 )     3.45277604
 
     54    -0.153E-09     0.0000585752        3.4527760379       9.90  <-- CONV
        O_D=      0.0000000 O_OD=      0.0019827 O_TOT=      3.4527760 <-- SPRD
 Delta: O_D= -0.1537295E-09 O_OD=  0.4628446E-12 O_TOT= -0.1532667E-09 <-- DLTA
 ------------------------------------------------------------------------------
 Cycle:     55
  WF centre and spread    1  ( -0.004165,  5.000000, -5.000000 )     0.86364962
  WF centre and spread    2  ( -0.004172,  5.000000, -5.000000 )     0.86273756
  WF centre and spread    3  (  1.268917,  5.000000,  5.000000 )     0.86365061
  WF centre and spread    4  (  1.268909, -5.000000, -5.000000 )     0.86273825
  Sum of centres and spreads (  2.529488, 10.000000,-10.000000 )     3.45277604
 
     55    -0.115E-09     0.0000605374        3.4527760377       9.90  <-- CONV
        O_D=      0.0000000 O_OD=      0.0019827 O_TOT=      3.4527760 <-- SPRD
 Delta: O_D= -0.1151532E-09 O_OD= -0.3690407E-13 O_TOT= -0.1151901E-09 <-- DLTA
 ------------------------------------------------------------------------------
 Cycle:     56
  WF centre and spread    1  ( -0.004165,  5.000000, -5.000000 )     0.86364962
  WF centre and spread    2  ( -0.004172,  5.000000, -5.000000 )     0.86273756
  WF centre and spread    3  (  1.268917,  5.000000,  5.000000 )     0.86365061
  WF centre and spread    4  (  1.268909, -5.000000, -5.000000 )     0.86273825
  Sum of centres and spreads (  2.529488, 10.000000,-10.000000 )     3.45277604
 
     56    -0.945E-10     0.0000528992        3.4527760376       9.90  <-- CONV
        O_D=      0.0000000 O_OD=      0.0019827 O_TOT=      3.4527760 <-- SPRD
 Delta: O_D= -0.9047647E-10 O_OD= -0.3980049E-11 O_TOT= -0.9445644E-10 <-- DLTA
 ------------------------------------------------------------------------------
 Cycle:     57
  WF centre and spread    1  ( -0.004165,  5.000000, -5.000000 )     0.86364962
  WF centre and spread    2  ( -0.004172,  5.000000, -5.000000 )     0.86273756
  WF centre and spread    3  (  1.268917,  5.000000,  5.000000 )     0.86365061
  WF centre and spread    4  (  1.268909, -5.000000, -5.000000 )     0.86273825
  Sum of centres and spreads (  2.529488, 10.000000,-10.000000 )     3.45277604
 
     57    -0.337E-10     0.0000390252        3.4527760376       9.90  <-- CONV
        O_D=      0.0000000 O_OD=      0.0019827 O_TOT=      3.4527760 <-- SPRD
 Delta: O_D= -0.3160158E-10 O_OD= -0.2049417E-11 O_TOT= -0.3365130E-10 <-- DLTA
 ------------------------------------------------------------------------------
 Cycle:     58
  WF centre and spread    1  ( -0.004165,  5.000000, -5.000000 )     0.86364962
  WF centre and spread    2  ( -0.004172,  5.000000, -5.000000 )     0.86273756
  WF centre and spread    3  (  1.268917,  5.000000,  5.000000 )     0.86365061
  WF centre and spread    4  (  1.268909, -5.000000, -5.000000 )     0.86273825
  Sum of centres and spreads (  2.529488, 10.000000,-10.000000 )     3.45277604
 
     58    -0.273E-10     0.0000282458        3.4527760376       9.90  <-- CONV
        O_D=      0.0000000 O_OD=      0.0019827 O_TOT=      3.4527760 <-- SPRD
 Delta: O_D= -0.2665445E-10 O_OD= -0.6769511E-12 O_TOT= -0.2733147E-10 <-- DLTA
 ------------------------------------------------------------------------------

             <<<     Delta < 1.000E-10  over  3 iterations     >>>
             <<< Wannierisation convergence criteria satisfied >>>

 Final State
  WF centre and spread    1  ( -0.004165,  5.000000, -5.000000 )     0.86364962
  WF centre and spread    2  ( -0.004172,  5.000000, -5.000000 )     0.86273756
  WF centre and spread    3  (  1.268917,  5.000000,  5.000000 )     0.86365061
  WF centre and spread    4  (  1.268909, -5.000000, -5.000000 )     0.86273825
  Sum of centres and spreads (  2.529488, 10.000000,-10.000000 )     3.45277604
 
         Spreads (Ang^2)       Omega I      =     3.450793352
        ================       Omega D      =     0.000000000
                               Omega OD     =     0.001982686
    Final Spread (Ang^2)       Omega Total  =     3.452776038
 ------------------------------------------------------------------------------

 Writing checkpoint file carbyne.chk... done

 Time for wannierise            0.090 (sec)
 *---------------------------------------------------------------------------*
 |                               PLOTTING                                    |
 *---------------------------------------------------------------------------*
 
 
 Calculating interpolated band-structure
 
 Time to calculate interpolated band structure       0.021 (sec)
 
 Time for plotting              0.061 (sec)
 Total Execution Time           9.786 (sec)

 *===========================================================================*
 |                             TIMING INFORMATION                            |
 *===========================================================================*
 |    Tag                                                Ncalls      Time (s)|
 |---------------------------------------------------------------------------|
 |kmesh: get                                        :         2         0.045|
 |kmesh: write                                      :         1         0.004|
 |overlap: allocate                                 :         1         0.000|
 |dis: main                                         :         1         9.603|
 |wann: main                                        :         1         0.089|
 |plot: main                                        :         1         0.061|
 *---------------------------------------------------------------------------*
 
 All done: wannier90 exiting
