
     Program PWSCF v.6.7MaX starts on 25Jun2021 at  9:34:28 

     This program is part of the open-source Quantum ESPRESSO suite
     for quantum simulation of materials; please cite
         "P. Giannozzi et al., J. Phys.:Condens. Matter 21 395502 (2009);
         "P. Giannozzi et al., J. Phys.:Condens. Matter 29 465901 (2017);
          URL http://www.quantum-espresso.org", 
     in publications or presentations arising from this work. More details at
     http://www.quantum-espresso.org/quote

     Parallel version (MPI & OpenMP), running on      56 processor cores
     Number of MPI processes:                28
     Threads/MPI process:                     2

     MPI processes distributed on     1 nodes
     K-points division:     npool     =      28
     Waiting for input...
     Reading input from standard input
Warning: card &IONS ignored
Warning: card     ION_DYNAMICS = "BFGS" ignored
Warning: card / ignored

     Current dimensions of program PWSCF are:
     Max number of different atomic species (ntypx) = 10
     Max number of k-points (npk) =  40000
     Max angular momentum in pseudopotentials (lmaxx) =  3
     Message from routine iosys:
     wrong startingpot: use default (2)

     Atomic positions and unit cell read from directory:
     ./carbyne.save/
     Atomic positions from file used, from input discarded
 
     file C.pbe-n-kjpaw_psl.1.0.0.UPF: wavefunction(s)  2S 2P renormalized

     Subspace diagonalization in iterative solution of the eigenvalue problem:
     a serial algorithm will be used

     Message from routine setup:
     using ibrav=0 with symmetry is DISCOURAGED, use correct ibrav instead
 
     G-vector sticks info
     --------------------
     sticks:   dense  smooth     PW     G-vecs:    dense   smooth      PW
     Sum        2927    1445    511               233967    82581   16965
 


     bravais-lattice index     =            0
     lattice parameter (alat)  =       4.8482  a.u.
     unit-cell volume          =    1731.3136 (a.u.)^3
     number of atoms/cell      =            2
     number of atomic types    =            1
     number of electrons       =         8.00
     number of Kohn-Sham states=           56
     kinetic-energy cutoff     =      50.0000  Ry
     charge density cutoff     =     400.0000  Ry
     Exchange-correlation= SLA  PW   PBX  PBC
                           (   1   4   3   4   0   0   0)

     celldm(1)=   4.848172  celldm(2)=   0.000000  celldm(3)=   0.000000
     celldm(4)=   0.000000  celldm(5)=   0.000000  celldm(6)=   0.000000

     crystal axes: (cart. coord. in units of alat)
               a(1) = (   1.000000   0.000000   0.000000 )  
               a(2) = (   0.000000   3.897812   0.000000 )  
               a(3) = (   0.000000   0.000000   3.897812 )  

     reciprocal axes: (cart. coord. in units 2 pi/alat)
               b(1) = (  1.000000  0.000000  0.000000 )  
               b(2) = (  0.000000  0.256554  0.000000 )  
               b(3) = (  0.000000  0.000000  0.256554 )  


     PseudoPot. # 1 for C  read from file:
     ./pseudo/C.pbe-n-kjpaw_psl.1.0.0.UPF
     MD5 check sum: 6fec8efd722f5d988670a8dc528584a2
     Pseudo is Projector augmented-wave + core cor, Zval =  4.0
     Generated using "atomic" code by A. Dal Corso  v.5.1.2
     Shape of augmentation charge: PSQ
     Using radial grid of 1073 points,  4 beta functions with: 
                l(1) =   0
                l(2) =   0
                l(3) =   1
                l(4) =   1
     Q(r) pseudized with 0 coefficients 


     atomic species   valence    mass     pseudopotential
        C              4.00    12.01070     C ( 1.00)

      8 Sym. Ops. (no inversion) found


                                    s                        frac. trans.

      isym =  1     identity                                     

 cryst.   s( 1) = (     1          0          0      )
                  (     0          1          0      )
                  (     0          0          1      )

 cart.    s( 1) = (  1.0000000  0.0000000  0.0000000 )
                  (  0.0000000  1.0000000  0.0000000 )
                  (  0.0000000  0.0000000  1.0000000 )


      isym =  2     180 deg rotation - cart. axis [1,0,0]        

 cryst.   s( 2) = (     1          0          0      )
                  (     0         -1          0      )
                  (     0          0         -1      )

 cart.    s( 2) = (  1.0000000  0.0000000  0.0000000 )
                  (  0.0000000 -1.0000000  0.0000000 )
                  (  0.0000000  0.0000000 -1.0000000 )


      isym =  3      90 deg rotation - cart. axis [-1,0,0]       

 cryst.   s( 3) = (     1          0          0      )
                  (     0          0         -1      )
                  (     0          1          0      )

 cart.    s( 3) = (  1.0000000  0.0000000  0.0000000 )
                  (  0.0000000  0.0000000  1.0000000 )
                  (  0.0000000 -1.0000000  0.0000000 )


      isym =  4      90 deg rotation - cart. axis [1,0,0]        

 cryst.   s( 4) = (     1          0          0      )
                  (     0          0          1      )
                  (     0         -1          0      )

 cart.    s( 4) = (  1.0000000  0.0000000  0.0000000 )
                  (  0.0000000  0.0000000 -1.0000000 )
                  (  0.0000000  1.0000000  0.0000000 )


      isym =  5     inv. 180 deg rotation - cart. axis [0,0,1]   

 cryst.   s( 5) = (     1          0          0      )
                  (     0          1          0      )
                  (     0          0         -1      )

 cart.    s( 5) = (  1.0000000  0.0000000  0.0000000 )
                  (  0.0000000  1.0000000  0.0000000 )
                  (  0.0000000  0.0000000 -1.0000000 )


      isym =  6     inv. 180 deg rotation - cart. axis [0,1,0]   

 cryst.   s( 6) = (     1          0          0      )
                  (     0         -1          0      )
                  (     0          0          1      )

 cart.    s( 6) = (  1.0000000  0.0000000  0.0000000 )
                  (  0.0000000 -1.0000000  0.0000000 )
                  (  0.0000000  0.0000000  1.0000000 )


      isym =  7     inv. 180 deg rotation - cart. axis [0,1,1]   

 cryst.   s( 7) = (     1          0          0      )
                  (     0          0         -1      )
                  (     0         -1          0      )

 cart.    s( 7) = (  1.0000000  0.0000000  0.0000000 )
                  (  0.0000000  0.0000000 -1.0000000 )
                  (  0.0000000 -1.0000000  0.0000000 )


      isym =  8     inv. 180 deg rotation - cart. axis [0,1,-1]  

 cryst.   s( 8) = (     1          0          0      )
                  (     0          0          1      )
                  (     0          1          0      )

 cart.    s( 8) = (  1.0000000  0.0000000  0.0000000 )
                  (  0.0000000  0.0000000  1.0000000 )
                  (  0.0000000  1.0000000  0.0000000 )


   Cartesian axes

     site n.     atom                  positions (alat units)
         1           C   tau(   1) = (   0.0001503   1.9489059   1.9489059  )
         2           C   tau(   2) = (   0.4928235   1.9489059   1.9489059  )

   Crystallographic axes

     site n.     atom                  positions (cryst. coord.)
         1           C   tau(   1) = (  0.0001503  0.5000000  0.5000000  )
         2           C   tau(   2) = (  0.4928235  0.5000000  0.5000000  )

     number of k points=    40
                       cart. coord. in units 2pi/alat
        k(    1) = (   0.0000000   0.0000000   0.0000000), wk =   0.0500000
        k(    2) = (   0.0250000   0.0000000   0.0000000), wk =   0.0500000
        k(    3) = (   0.0500000   0.0000000   0.0000000), wk =   0.0500000
        k(    4) = (   0.0750000   0.0000000   0.0000000), wk =   0.0500000
        k(    5) = (   0.1000000   0.0000000   0.0000000), wk =   0.0500000
        k(    6) = (   0.1250000   0.0000000   0.0000000), wk =   0.0500000
        k(    7) = (   0.1500000   0.0000000   0.0000000), wk =   0.0500000
        k(    8) = (   0.1750000   0.0000000   0.0000000), wk =   0.0500000
        k(    9) = (   0.2000000   0.0000000   0.0000000), wk =   0.0500000
        k(   10) = (   0.2250000   0.0000000   0.0000000), wk =   0.0500000
        k(   11) = (   0.2500000   0.0000000   0.0000000), wk =   0.0500000
        k(   12) = (   0.2750000   0.0000000   0.0000000), wk =   0.0500000
        k(   13) = (   0.3000000   0.0000000   0.0000000), wk =   0.0500000
        k(   14) = (   0.3250000   0.0000000   0.0000000), wk =   0.0500000
        k(   15) = (   0.3500000   0.0000000   0.0000000), wk =   0.0500000
        k(   16) = (   0.3750000   0.0000000   0.0000000), wk =   0.0500000
        k(   17) = (   0.4000000   0.0000000   0.0000000), wk =   0.0500000
        k(   18) = (   0.4250000   0.0000000   0.0000000), wk =   0.0500000
        k(   19) = (   0.4500000   0.0000000   0.0000000), wk =   0.0500000
        k(   20) = (   0.4750000   0.0000000   0.0000000), wk =   0.0500000
        k(   21) = (   0.5000000   0.0000000   0.0000000), wk =   0.0500000
        k(   22) = (   0.5250000   0.0000000   0.0000000), wk =   0.0500000
        k(   23) = (   0.5500000   0.0000000   0.0000000), wk =   0.0500000
        k(   24) = (   0.5750000   0.0000000   0.0000000), wk =   0.0500000
        k(   25) = (   0.6000000   0.0000000   0.0000000), wk =   0.0500000
        k(   26) = (   0.6250000   0.0000000   0.0000000), wk =   0.0500000
        k(   27) = (   0.6500000   0.0000000   0.0000000), wk =   0.0500000
        k(   28) = (   0.6750000   0.0000000   0.0000000), wk =   0.0500000
        k(   29) = (   0.7000000   0.0000000   0.0000000), wk =   0.0500000
        k(   30) = (   0.7250000   0.0000000   0.0000000), wk =   0.0500000
        k(   31) = (   0.7500000   0.0000000   0.0000000), wk =   0.0500000
        k(   32) = (   0.7750000   0.0000000   0.0000000), wk =   0.0500000
        k(   33) = (   0.8000000   0.0000000   0.0000000), wk =   0.0500000
        k(   34) = (   0.8250000   0.0000000   0.0000000), wk =   0.0500000
        k(   35) = (   0.8500000   0.0000000   0.0000000), wk =   0.0500000
        k(   36) = (   0.8750000   0.0000000   0.0000000), wk =   0.0500000
        k(   37) = (   0.9000000   0.0000000   0.0000000), wk =   0.0500000
        k(   38) = (   0.9250000   0.0000000   0.0000000), wk =   0.0500000
        k(   39) = (   0.9500000   0.0000000   0.0000000), wk =   0.0500000
        k(   40) = (   0.9750000   0.0000000   0.0000000), wk =   0.0500000

                       cryst. coord.
        k(    1) = (   0.0000000   0.0000000   0.0000000), wk =   0.0500000
        k(    2) = (   0.0250000   0.0000000   0.0000000), wk =   0.0500000
        k(    3) = (   0.0500000   0.0000000   0.0000000), wk =   0.0500000
        k(    4) = (   0.0750000   0.0000000   0.0000000), wk =   0.0500000
        k(    5) = (   0.1000000   0.0000000   0.0000000), wk =   0.0500000
        k(    6) = (   0.1250000   0.0000000   0.0000000), wk =   0.0500000
        k(    7) = (   0.1500000   0.0000000   0.0000000), wk =   0.0500000
        k(    8) = (   0.1750000   0.0000000   0.0000000), wk =   0.0500000
        k(    9) = (   0.2000000   0.0000000   0.0000000), wk =   0.0500000
        k(   10) = (   0.2250000   0.0000000   0.0000000), wk =   0.0500000
        k(   11) = (   0.2500000   0.0000000   0.0000000), wk =   0.0500000
        k(   12) = (   0.2750000   0.0000000   0.0000000), wk =   0.0500000
        k(   13) = (   0.3000000   0.0000000   0.0000000), wk =   0.0500000
        k(   14) = (   0.3250000   0.0000000   0.0000000), wk =   0.0500000
        k(   15) = (   0.3500000   0.0000000   0.0000000), wk =   0.0500000
        k(   16) = (   0.3750000   0.0000000   0.0000000), wk =   0.0500000
        k(   17) = (   0.4000000   0.0000000   0.0000000), wk =   0.0500000
        k(   18) = (   0.4250000   0.0000000   0.0000000), wk =   0.0500000
        k(   19) = (   0.4500000   0.0000000   0.0000000), wk =   0.0500000
        k(   20) = (   0.4750000   0.0000000   0.0000000), wk =   0.0500000
        k(   21) = (   0.5000000   0.0000000   0.0000000), wk =   0.0500000
        k(   22) = (   0.5250000   0.0000000   0.0000000), wk =   0.0500000
        k(   23) = (   0.5500000   0.0000000   0.0000000), wk =   0.0500000
        k(   24) = (   0.5750000   0.0000000   0.0000000), wk =   0.0500000
        k(   25) = (   0.6000000   0.0000000   0.0000000), wk =   0.0500000
        k(   26) = (   0.6250000   0.0000000   0.0000000), wk =   0.0500000
        k(   27) = (   0.6500000   0.0000000   0.0000000), wk =   0.0500000
        k(   28) = (   0.6750000   0.0000000   0.0000000), wk =   0.0500000
        k(   29) = (   0.7000000   0.0000000   0.0000000), wk =   0.0500000
        k(   30) = (   0.7250000   0.0000000   0.0000000), wk =   0.0500000
        k(   31) = (   0.7500000   0.0000000   0.0000000), wk =   0.0500000
        k(   32) = (   0.7750000   0.0000000   0.0000000), wk =   0.0500000
        k(   33) = (   0.8000000   0.0000000   0.0000000), wk =   0.0500000
        k(   34) = (   0.8250000   0.0000000   0.0000000), wk =   0.0500000
        k(   35) = (   0.8500000   0.0000000   0.0000000), wk =   0.0500000
        k(   36) = (   0.8750000   0.0000000   0.0000000), wk =   0.0500000
        k(   37) = (   0.9000000   0.0000000   0.0000000), wk =   0.0500000
        k(   38) = (   0.9250000   0.0000000   0.0000000), wk =   0.0500000
        k(   39) = (   0.9500000   0.0000000   0.0000000), wk =   0.0500000
        k(   40) = (   0.9750000   0.0000000   0.0000000), wk =   0.0500000

     Dense  grid:   233967 G-vectors     FFT dimensions: (  32, 125, 125)

     Smooth grid:    82581 G-vectors     FFT dimensions: (  24,  90,  90)

     Dynamical RAM for                 wfc:       8.83 MB

     Dynamical RAM for     wfc (w. buffer):       8.83 MB

     Dynamical RAM for           str. fact:       3.57 MB

     Dynamical RAM for           local pot:       0.00 MB

     Dynamical RAM for          nlocal pot:       2.52 MB

     Dynamical RAM for                qrad:       0.46 MB

     Dynamical RAM for          rho,v,vnew:      22.15 MB

     Dynamical RAM for           G-vectors:      14.02 MB

     Dynamical RAM for          h,s,v(r/c):       0.57 MB

     Dynamical RAM for          <psi|beta>:       0.01 MB

     Dynamical RAM for                 psi:      17.67 MB

     Dynamical RAM for                hpsi:      17.67 MB

     Dynamical RAM for                spsi:      17.67 MB

     Dynamical RAM for      wfcinit/wfcrot:      17.74 MB

     Dynamical RAM for           addusdens:       9.18 MB

     Estimated static dynamical RAM per process >      77.77 MB

     Estimated max dynamical RAM per process >     131.36 MB

     Estimated total dynamical RAM >       3.59 GB

     Check: negative core charge=   -0.000002

     The potential is recalculated from file :
     ./carbyne.save/charge-density


     negative rho (up, down):  1.845E-04 0.000E+00
     Starting wfcs are    8 randomized atomic wfcs +   48 random wfcs
     Checking if some PAW data can be deallocated... 

     Band Structure Calculation
     Davidson diagonalization with overlap

     Computing kpt #:     1  of     2 on this pool
     total cpu time spent up to now is       12.2 secs

     Computing kpt #:     2  of     2 on this pool
     total cpu time spent up to now is       18.7 secs

     ethr =  1.25E-10,  avg # of iterations = 45.1

     total cpu time spent up to now is       21.5 secs

     End of band structure calculation

          k = 0.0000 0.0000 0.0000 ( 10379 PWs)   bands (ev):

   -20.6775 -13.4754  -9.7330  -9.7330  -0.1569   1.3960   1.3960   1.4422
     1.6584   2.4009   3.0326   3.0326   3.5053   4.1742   4.5464   5.9452
     6.0338   6.0338   6.5193   6.7535   6.7535   7.2778   7.3528   7.3528
     7.5137   8.0012   8.0012   9.2629  10.5829  11.0965  11.8462  11.8462
    12.1595  13.7745  13.7745  14.0819  14.2534  14.4896  14.5509  14.5509
    14.5627  15.9395  15.9395  17.1842  17.3384  18.4569  18.4569  18.9391
    19.1951  19.1951  19.3800  20.1074  20.1074  21.1346  21.3378  21.7921

     occupation numbers 
     1.0000   1.0000   1.0000   1.0000   0.0000   0.0000   0.0000   0.0000
     0.0000   0.0000   0.0000   0.0000   0.0000   0.0000   0.0000   0.0000
     0.0000   0.0000   0.0000   0.0000   0.0000   0.0000   0.0000   0.0000
     0.0000   0.0000   0.0000   0.0000   0.0000   0.0000   0.0000   0.0000
     0.0000   0.0000   0.0000   0.0000   0.0000   0.0000   0.0000   0.0000
     0.0000   0.0000   0.0000   0.0000   0.0000   0.0000   0.0000   0.0000
     0.0000   0.0000   0.0000   0.0000   0.0000   0.0000   0.0000   0.0000

          k = 0.0250 0.0000 0.0000 ( 10395 PWs)   bands (ev):

   -20.6695 -13.4925  -9.7195  -9.7195  -0.1431   1.4103   1.4103   1.4564
     1.6721   2.4152   3.0468   3.0468   3.5190   4.1976   4.5607   5.9594
     6.0480   6.0480   6.5333   6.6739   6.6739   7.2921   7.3671   7.3671
     7.5280   8.0153   8.0153   9.2752  10.5972  11.1107  11.8604  11.8604
    12.1736  13.7887  13.7887  14.0962  14.2672  14.5039  14.5652  14.5652
    14.5770  15.9537  15.9537  17.1958  17.3527  18.5065  18.5065  18.9534
    19.2094  19.2094  19.3943  20.1214  20.1214  21.1489  21.1988  21.3483

     occupation numbers 
     1.0000   1.0000   1.0000   1.0000   0.0000   0.0000   0.0000   0.0000
     0.0000   0.0000   0.0000   0.0000   0.0000   0.0000   0.0000   0.0000
     0.0000   0.0000   0.0000   0.0000   0.0000   0.0000   0.0000   0.0000
     0.0000   0.0000   0.0000   0.0000   0.0000   0.0000   0.0000   0.0000
     0.0000   0.0000   0.0000   0.0000   0.0000   0.0000   0.0000   0.0000
     0.0000   0.0000   0.0000   0.0000   0.0000   0.0000   0.0000   0.0000
     0.0000   0.0000   0.0000   0.0000   0.0000   0.0000   0.0000   0.0000

          k = 0.0500 0.0000 0.0000 ( 10355 PWs)   bands (ev):

   -20.6452 -13.5434  -9.6790  -9.6790  -0.1018   1.4529   1.4529   1.4993
     1.7132   2.4580   3.0895   3.0895   3.5601   4.2673   4.6035   6.0023
     6.0905   6.0905   6.4427   6.4427   6.5753   7.3350   7.4099   7.4099
     7.5708   8.0578   8.0578   9.3122  10.6401  11.1536  11.9032  11.9032
    12.2156  13.8313  13.8313  14.1391  14.3085  14.5467  14.6080  14.6080
    14.6199  15.9961  15.9961  17.2308  17.3955  18.6271  18.6271  18.9962
    19.2521  19.2521  19.4371  20.1634  20.1634  20.2480  21.1917  21.3779

     occupation numbers 
     1.0000   1.0000   1.0000   1.0000   0.0000   0.0000   0.0000   0.0000
     0.0000   0.0000   0.0000   0.0000   0.0000   0.0000   0.0000   0.0000
     0.0000   0.0000   0.0000   0.0000   0.0000   0.0000   0.0000   0.0000
     0.0000   0.0000   0.0000   0.0000   0.0000   0.0000   0.0000   0.0000
     0.0000   0.0000   0.0000   0.0000   0.0000   0.0000   0.0000   0.0000
     0.0000   0.0000   0.0000   0.0000   0.0000   0.0000   0.0000   0.0000
     0.0000   0.0000   0.0000   0.0000   0.0000   0.0000   0.0000   0.0000

          k = 0.0750 0.0000 0.0000 ( 10335 PWs)   bands (ev):

   -20.6049 -13.6271  -9.6116  -9.6116  -0.0329   1.5239   1.5239   1.5707
     1.7818   2.5294   3.1607   3.1607   3.6286   4.3817   4.6749   6.0737
     6.0778   6.0778   6.1634   6.1634   6.6454   7.4064   7.4813   7.4813
     7.6423   8.1286   8.1286   9.3736  10.7115  11.2250  11.9745  11.9745
    12.2858  13.9023  13.9023  14.2105  14.3772  14.6181  14.6794  14.6794
    14.6913  16.0667  16.0667  17.2887  17.4669  18.7207  18.7207  19.0676
    19.2632  19.3233  19.3233  19.5085  20.2331  20.2331  20.9945  21.0373

     occupation numbers 
     1.0000   1.0000   1.0000   1.0000   0.0000   0.0000   0.0000   0.0000
     0.0000   0.0000   0.0000   0.0000   0.0000   0.0000   0.0000   0.0000
     0.0000   0.0000   0.0000   0.0000   0.0000   0.0000   0.0000   0.0000
     0.0000   0.0000   0.0000   0.0000   0.0000   0.0000   0.0000   0.0000
     0.0000   0.0000   0.0000   0.0000   0.0000   0.0000   0.0000   0.0000
     0.0000   0.0000   0.0000   0.0000   0.0000   0.0000   0.0000   0.0000
     0.0000   0.0000   0.0000   0.0000   0.0000   0.0000   0.0000   0.0000

          k = 0.1000 0.0000 0.0000 ( 10355 PWs)   bands (ev):

   -20.5486 -13.7420  -9.5172  -9.5172   0.0635   1.6234   1.6234   1.6707
     1.8777   2.6294   3.2603   3.2603   3.7244   4.5383   4.7749   5.6100
     5.6100   6.1737   6.2618   6.2618   6.7434   7.5064   7.5811   7.5811
     7.7422   8.2276   8.2276   9.4595  10.8114  11.3249  12.0744  12.0744
    12.3839  14.0017  14.0017  14.3104  14.4733  14.7181  14.7794  14.7794
    14.7913  16.1654  16.1654  17.3690  17.5669  18.2862  18.6032  18.6032
    19.1676  19.4229  19.4229  19.6085  19.9519  20.0648  20.3295  20.3296

     occupation numbers 
     1.0000   1.0000   1.0000   1.0000   0.0000   0.0000   0.0000   0.0000
     0.0000   0.0000   0.0000   0.0000   0.0000   0.0000   0.0000   0.0000
     0.0000   0.0000   0.0000   0.0000   0.0000   0.0000   0.0000   0.0000
     0.0000   0.0000   0.0000   0.0000   0.0000   0.0000   0.0000   0.0000
     0.0000   0.0000   0.0000   0.0000   0.0000   0.0000   0.0000   0.0000
     0.0000   0.0000   0.0000   0.0000   0.0000   0.0000   0.0000   0.0000
     0.0000   0.0000   0.0000   0.0000   0.0000   0.0000   0.0000   0.0000

          k = 0.1250 0.0000 0.0000 ( 10359 PWs)   bands (ev):

   -20.4764 -13.8860  -9.3960  -9.3960   0.1874   1.7512   1.7512   1.7992
     2.0009   2.7580   3.3883   3.3883   3.8475   4.7335   4.9034   5.0612
     5.0612   6.3022   6.3898   6.3898   6.8693   7.6349   7.7096   7.7096
     7.8708   8.3548   8.3548   9.5693  10.9399  11.4534  12.2027  12.2027
    12.5100  14.1295  14.1295  14.4389  14.5967  14.8467  14.9079  14.9079
    14.9198  16.2923  16.2923  17.3280  17.4712  17.6954  18.1370  18.1370
    18.9379  19.1102  19.2961  19.5510  19.5510  19.7370  19.8959  20.0205

     occupation numbers 
     1.0000   1.0000   1.0000   1.0000   0.0000   0.0000   0.0000   0.0000
     0.0000   0.0000   0.0000   0.0000   0.0000   0.0000   0.0000   0.0000
     0.0000   0.0000   0.0000   0.0000   0.0000   0.0000   0.0000   0.0000
     0.0000   0.0000   0.0000   0.0000   0.0000   0.0000   0.0000   0.0000
     0.0000   0.0000   0.0000   0.0000   0.0000   0.0000   0.0000   0.0000
     0.0000   0.0000   0.0000   0.0000   0.0000   0.0000   0.0000   0.0000
     0.0000   0.0000   0.0000   0.0000   0.0000   0.0000   0.0000   0.0000

          k = 0.1500 0.0000 0.0000 ( 10351 PWs)   bands (ev):

   -20.3885 -14.0564  -9.2479  -9.2479   0.3386   1.9074   1.9074   1.9563
     2.1513   2.9151   3.5447   3.5447   3.9979   4.4557   4.4557   4.9629
     5.0605   6.4593   6.5463   6.5463   7.0231   7.7920   7.8665   7.8665
     8.0279   8.5102   8.5102   9.7029  11.0970  11.6105  12.3596  12.3596
    12.6640  14.2856  14.2856  14.5960  14.7471  15.0038  15.0650  15.0650
    15.0769  16.3945  16.4472  16.4472  17.4223  17.4223  17.5931  17.8524
    17.9525  18.1801  18.9106  19.2218  19.2218  19.4532  19.7080  19.7080

     occupation numbers 
     1.0000   1.0000   1.0000   1.0000   0.0000   0.0000   0.0000   0.0000
     0.0000   0.0000   0.0000   0.0000   0.0000   0.0000   0.0000   0.0000
     0.0000   0.0000   0.0000   0.0000   0.0000   0.0000   0.0000   0.0000
     0.0000   0.0000   0.0000   0.0000   0.0000   0.0000   0.0000   0.0000
     0.0000   0.0000   0.0000   0.0000   0.0000   0.0000   0.0000   0.0000
     0.0000   0.0000   0.0000   0.0000   0.0000   0.0000   0.0000   0.0000
     0.0000   0.0000   0.0000   0.0000   0.0000   0.0000   0.0000   0.0000

          k = 0.1750 0.0000 0.0000 ( 10375 PWs)   bands (ev):

   -20.2852 -14.2505  -9.0730  -9.0730   0.5171   2.0920   2.0920   2.1420
     2.3290   3.1007   3.7250   3.7250   3.8165   3.8165   4.1755   5.2206
     5.2462   6.6449   6.7313   6.7313   7.2048   7.9777   8.0520   8.0520
     8.2136   8.6938   8.6938   9.8597  11.2827  11.7961  12.5450  12.5450
    12.8459  14.4701  14.4701  14.7817  14.9241  15.1894  15.2507  15.2507
    15.2626  15.4876  16.6056  16.6056  16.6307  16.6307  16.9956  17.2772
    17.7343  17.9537  18.0381  18.3612  18.3612  19.0894  19.6388  19.8933

     occupation numbers 
     1.0000   1.0000   1.0000   1.0000   0.0000   0.0000   0.0000   0.0000
     0.0000   0.0000   0.0000   0.0000   0.0000   0.0000   0.0000   0.0000
     0.0000   0.0000   0.0000   0.0000   0.0000   0.0000   0.0000   0.0000
     0.0000   0.0000   0.0000   0.0000   0.0000   0.0000   0.0000   0.0000
     0.0000   0.0000   0.0000   0.0000   0.0000   0.0000   0.0000   0.0000
     0.0000   0.0000   0.0000   0.0000   0.0000   0.0000   0.0000   0.0000
     0.0000   0.0000   0.0000   0.0000   0.0000   0.0000   0.0000   0.0000

          k = 0.2000 0.0000 0.0000 ( 10395 PWs)   bands (ev):

   -20.1666 -14.4655  -8.8714  -8.8714   0.7228   2.3045   2.3045   2.3562
     2.5336   3.1433   3.1433   3.3150   3.9442   3.9442   4.3801   5.4604
     5.4998   6.8591   6.9447   6.9447   7.4141   8.1919   8.2660   8.2660
     8.4278   8.9056   8.9056  10.0390  11.4968  12.0102  12.7589  12.7589
    13.0554  14.6097  14.6829  14.6829  14.9959  15.1277  15.4036  15.4649
    15.4649  15.4768  15.7605  15.7605  16.0672  16.4050  16.8412  16.8412
    17.0255  17.4880  17.4880  17.8903  18.2142  18.2522  19.1693  19.8530

     occupation numbers 
     1.0000   1.0000   1.0000   1.0000   0.0000   0.0000   0.0000   0.0000
     0.0000   0.0000   0.0000   0.0000   0.0000   0.0000   0.0000   0.0000
     0.0000   0.0000   0.0000   0.0000   0.0000   0.0000   0.0000   0.0000
     0.0000   0.0000   0.0000   0.0000   0.0000   0.0000   0.0000   0.0000
     0.0000   0.0000   0.0000   0.0000   0.0000   0.0000   0.0000   0.0000
     0.0000   0.0000   0.0000   0.0000   0.0000   0.0000   0.0000   0.0000
     0.0000   0.0000   0.0000   0.0000   0.0000   0.0000   0.0000   0.0000

          k = 0.2250 0.0000 0.0000 ( 10403 PWs)   bands (ev):

   -20.0330 -14.6983  -8.6432  -8.6432   0.9554   2.4524   2.4524   2.5565
     2.5565   2.5990   2.7651   3.5578   4.1858   4.1858   4.6117   5.7032
     5.7915   7.1019   7.1866   7.1866   7.6510   8.4347   8.5085   8.5085
     8.6706   9.1456   9.1456  10.2400  11.7396  12.2529  13.0013  13.0013
    13.2924  13.7632  14.9141  14.9141  14.9244  14.9244  15.1675  15.2386
    15.3563  15.5655  15.6464  15.7077  15.7077  15.7196  16.1257  16.6235
    16.6235  17.0801  17.0801  17.3698  18.0611  18.2698  18.4949  19.5254

     occupation numbers 
     1.0000   1.0000   1.0000   1.0000   0.0000   0.0000   0.0000   0.0000
     0.0000   0.0000   0.0000   0.0000   0.0000   0.0000   0.0000   0.0000
     0.0000   0.0000   0.0000   0.0000   0.0000   0.0000   0.0000   0.0000
     0.0000   0.0000   0.0000   0.0000   0.0000   0.0000   0.0000   0.0000
     0.0000   0.0000   0.0000   0.0000   0.0000   0.0000   0.0000   0.0000
     0.0000   0.0000   0.0000   0.0000   0.0000   0.0000   0.0000   0.0000
     0.0000   0.0000   0.0000   0.0000   0.0000   0.0000   0.0000   0.0000

          k = 0.2500 0.0000 0.0000 ( 10359 PWs)   bands (ev):

   -19.8849 -14.9459  -8.3885  -8.3885   1.2148   1.7762   1.7762   2.8178
     2.8178   2.8704   3.0234   3.8291   4.4561   4.4561   4.8701   5.9745
     6.0846   7.3732   7.4568   7.4568   7.9152   8.7061   8.7796   8.7796
     8.9420   9.4137   9.4137  10.4614  12.0109  12.5242  12.9501  13.2722
    13.2722  13.5569  14.0813  14.0813  14.2962  14.7598  15.1933  15.1933
    15.2546  15.5100  15.6106  15.7769  15.7769  15.9178  15.9790  15.9790
    15.9910  16.5637  17.3470  17.3470  17.3988  18.2370  18.7176  18.7176

     occupation numbers 
     1.0000   1.0000   1.0000   1.0000   0.0000   0.0000   0.0000   0.0000
     0.0000   0.0000   0.0000   0.0000   0.0000   0.0000   0.0000   0.0000
     0.0000   0.0000   0.0000   0.0000   0.0000   0.0000   0.0000   0.0000
     0.0000   0.0000   0.0000   0.0000   0.0000   0.0000   0.0000   0.0000
     0.0000   0.0000   0.0000   0.0000   0.0000   0.0000   0.0000   0.0000
     0.0000   0.0000   0.0000   0.0000   0.0000   0.0000   0.0000   0.0000
     0.0000   0.0000   0.0000   0.0000   0.0000   0.0000   0.0000   0.0000

          k = 0.2750 0.0000 0.0000 ( 10367 PWs)   bands (ev):

   -19.7226 -15.2058  -8.1074  -8.1074   1.0938   1.0938   1.5007   3.1155
     3.1155   3.1703   3.3080   4.1290   4.7549   4.7549   5.1550   6.2744
     6.3641   7.6731   7.7555   7.7555   8.2065   9.0060   9.0792   9.0792
     9.2419   9.7099   9.7099  10.7013  12.1741  12.3108  12.8240  13.2667
    13.2667  13.4536  13.5716  13.5716  13.8474  13.9937  14.4120  14.9524
    14.9524  15.4909  15.4909  15.7941  15.8098  15.8913  16.2177  16.2790
    16.2790  16.2909  16.5563  17.6417  17.6417  17.9139  17.9139  17.9547

     occupation numbers 
     1.0000   1.0000   1.0000   1.0000   0.0000   0.0000   0.0000   0.0000
     0.0000   0.0000   0.0000   0.0000   0.0000   0.0000   0.0000   0.0000
     0.0000   0.0000   0.0000   0.0000   0.0000   0.0000   0.0000   0.0000
     0.0000   0.0000   0.0000   0.0000   0.0000   0.0000   0.0000   0.0000
     0.0000   0.0000   0.0000   0.0000   0.0000   0.0000   0.0000   0.0000
     0.0000   0.0000   0.0000   0.0000   0.0000   0.0000   0.0000   0.0000
     0.0000   0.0000   0.0000   0.0000   0.0000   0.0000   0.0000   0.0000

          k = 0.3000 0.0000 0.0000 ( 10355 PWs)   bands (ev):

   -19.5465 -15.4750  -7.8001  -7.8001   0.4183   0.4183   1.8127   3.4419
     3.4419   3.4988   3.6188   4.4575   5.0820   5.0820   5.4660   6.6029
     6.6104   8.0016   8.0826   8.0826   8.5244   9.3345   9.4073   9.4073
     9.5704  10.0342  10.0342  10.9563  11.4400  12.4744  12.4744  12.6392
    12.6395  13.1524  13.2678  13.5979  13.8994  13.8994  14.1524  14.1524
    14.1661  15.0786  15.7424  15.8168  15.8168  16.1383  16.1857  16.5462
    16.6074  16.6074  16.6194  17.1260  17.1260  17.1408  17.8094  17.9643

     occupation numbers 
     1.0000   1.0000   1.0000   1.0000   0.0000   0.0000   0.0000   0.0000
     0.0000   0.0000   0.0000   0.0000   0.0000   0.0000   0.0000   0.0000
     0.0000   0.0000   0.0000   0.0000   0.0000   0.0000   0.0000   0.0000
     0.0000   0.0000   0.0000   0.0000   0.0000   0.0000   0.0000   0.0000
     0.0000   0.0000   0.0000   0.0000   0.0000   0.0000   0.0000   0.0000
     0.0000   0.0000   0.0000   0.0000   0.0000   0.0000   0.0000   0.0000
     0.0000   0.0000   0.0000   0.0000   0.0000   0.0000   0.0000   0.0000

          k = 0.3250 0.0000 0.0000 ( 10355 PWs)   bands (ev):

   -19.3572 -15.7512  -7.4668  -7.4668  -0.2464  -0.2463   2.1502   3.7967
     3.7967   3.8559   3.9552   4.8146   5.4376   5.4376   5.8027   6.7974
     6.9599   8.3586   8.4381   8.4381   8.8683   9.6915   9.7639   9.7639
     9.9275  10.3865  10.3865  10.7434  11.2320  11.7062  11.7062  11.8540
    12.5904  12.8124  12.9962  13.3780  13.3780  13.5093  14.2558  14.2558
    14.4126  14.5136  14.9571  16.1706  16.1706  16.3552  16.3595  16.3595
    16.4955  16.4989  16.9032  16.9645  16.9645  16.9765  17.0496  17.6895

     occupation numbers 
     1.0000   1.0000   1.0000   1.0000   0.0000   0.0000   0.0000   0.0000
     0.0000   0.0000   0.0000   0.0000   0.0000   0.0000   0.0000   0.0000
     0.0000   0.0000   0.0000   0.0000   0.0000   0.0000   0.0000   0.0000
     0.0000   0.0000   0.0000   0.0000   0.0000   0.0000   0.0000   0.0000
     0.0000   0.0000   0.0000   0.0000   0.0000   0.0000   0.0000   0.0000
     0.0000   0.0000   0.0000   0.0000   0.0000   0.0000   0.0000   0.0000
     0.0000   0.0000   0.0000   0.0000   0.0000   0.0000   0.0000   0.0000

          k = 0.3500 0.0000 0.0000 ( 10323 PWs)   bands (ev):

   -19.1552 -16.0320  -7.1077  -7.1077  -0.8971  -0.8971   2.5127   4.1798
     4.1798   4.2415   4.3167   5.2002   5.8216   5.8216   6.1642   6.8936
     7.3455   8.7442   8.8219   8.8219   9.2369  10.0771  10.1046  10.1490
    10.1490  10.3131  10.7663  10.7663  10.9639  10.9639  11.0970  11.5048
    11.9680  12.0555  12.6302  12.6302  13.3817  13.8256  13.8946  14.2004
    14.6406  14.6406  14.8779  15.5987  15.6167  15.6167  16.3215  16.5530
    16.5530  16.8217  16.8809  16.9325  16.9823  16.9823  17.1686  17.2889

     occupation numbers 
     1.0000   1.0000   1.0000   1.0000   0.0000   0.0000   0.0000   0.0000
     0.0000   0.0000   0.0000   0.0000   0.0000   0.0000   0.0000   0.0000
     0.0000   0.0000   0.0000   0.0000   0.0000   0.0000   0.0000   0.0000
     0.0000   0.0000   0.0000   0.0000   0.0000   0.0000   0.0000   0.0000
     0.0000   0.0000   0.0000   0.0000   0.0000   0.0000   0.0000   0.0000
     0.0000   0.0000   0.0000   0.0000   0.0000   0.0000   0.0000   0.0000
     0.0000   0.0000   0.0000   0.0000   0.0000   0.0000   0.0000   0.0000

          k = 0.3750 0.0000 0.0000 ( 10323 PWs)   bands (ev):

   -18.9412 -16.3152  -6.7231  -6.7231  -1.5314  -1.5314   2.8992   4.5912
     4.5912   4.6557   4.7026   5.6144   6.2340   6.2340   6.5465   6.8711
     7.7596   9.1583   9.2340   9.2340   9.5090   9.6352  10.2466  10.2466
    10.3686  10.4913  10.5626  10.5626  10.7273  11.1751  11.1751  11.3272
    11.3717  11.8051  11.9095  11.9095  13.3265  13.4718  13.7958  14.3090
    14.8705  14.8995  14.8995  15.0539  15.0539  15.2663  15.6334  16.2042
    16.2588  16.2588  16.4403  16.7571  16.7571  16.9634  16.9634  17.1338

     occupation numbers 
     1.0000   1.0000   1.0000   1.0000   0.0000   0.0000   0.0000   0.0000
     0.0000   0.0000   0.0000   0.0000   0.0000   0.0000   0.0000   0.0000
     0.0000   0.0000   0.0000   0.0000   0.0000   0.0000   0.0000   0.0000
     0.0000   0.0000   0.0000   0.0000   0.0000   0.0000   0.0000   0.0000
     0.0000   0.0000   0.0000   0.0000   0.0000   0.0000   0.0000   0.0000
     0.0000   0.0000   0.0000   0.0000   0.0000   0.0000   0.0000   0.0000
     0.0000   0.0000   0.0000   0.0000   0.0000   0.0000   0.0000   0.0000

          k = 0.4000 0.0000 0.0000 ( 10291 PWs)   bands (ev):

   -18.7159 -16.5989  -6.3136  -6.3135  -2.1472  -2.1472   3.3083   5.0309
     5.0309   5.0984   5.1116   6.0571   6.6747   6.6747   6.6865   6.9761
     8.2023   8.9679   9.5562   9.5562   9.6010   9.6688   9.6750   9.6750
    10.0434  10.6274  10.8405  10.9341  11.0046  11.0046  11.1700  11.2159
    11.2159  11.6113  11.6113  12.0721  12.7722  12.9382  14.1697  14.2087
    14.2087  14.2395  14.7515  14.9850  15.4954  15.4954  15.5044  15.5629
    15.5629  15.6755  15.7404  16.0809  16.0809  17.4014  17.4014  17.4058

     occupation numbers 
     1.0000   1.0000   1.0000   1.0000   0.0000   0.0000   0.0000   0.0000
     0.0000   0.0000   0.0000   0.0000   0.0000   0.0000   0.0000   0.0000
     0.0000   0.0000   0.0000   0.0000   0.0000   0.0000   0.0000   0.0000
     0.0000   0.0000   0.0000   0.0000   0.0000   0.0000   0.0000   0.0000
     0.0000   0.0000   0.0000   0.0000   0.0000   0.0000   0.0000   0.0000
     0.0000   0.0000   0.0000   0.0000   0.0000   0.0000   0.0000   0.0000
     0.0000   0.0000   0.0000   0.0000   0.0000   0.0000   0.0000   0.0000

          k = 0.4250 0.0000 0.0000 ( 10287 PWs)   bands (ev):

   -18.4803 -16.8809  -5.8797  -5.8797  -2.7427  -2.7427   3.7381   5.4987
     5.4987   5.5419   5.5698   6.4020   6.5284   7.1437   7.1437   7.4021
     8.4508   8.6735   8.8939   8.8939   8.9976   9.9556  10.0728  10.1432
    10.1432  10.3161  10.4842  10.5502  10.5502  11.4054  11.4752  11.4752
    11.6414  12.0748  12.0748  12.1010  12.2977  12.6833  13.4995  13.5448
    13.5448  14.3945  14.7098  14.8330  14.8941  14.8941  15.0692  15.2227
    15.4294  15.4294  15.9658  15.9658  16.0893  17.5855  17.8674  17.8674

     occupation numbers 
     1.0000   1.0000   1.0000   1.0000   0.0000   0.0000   0.0000   0.0000
     0.0000   0.0000   0.0000   0.0000   0.0000   0.0000   0.0000   0.0000
     0.0000   0.0000   0.0000   0.0000   0.0000   0.0000   0.0000   0.0000
     0.0000   0.0000   0.0000   0.0000   0.0000   0.0000   0.0000   0.0000
     0.0000   0.0000   0.0000   0.0000   0.0000   0.0000   0.0000   0.0000
     0.0000   0.0000   0.0000   0.0000   0.0000   0.0000   0.0000   0.0000
     0.0000   0.0000   0.0000   0.0000   0.0000   0.0000   0.0000   0.0000

          k = 0.4500 0.0000 0.0000 ( 10271 PWs)   bands (ev):

   -18.2357 -17.1592  -5.4232  -5.4232  -3.3152  -3.3152   4.1855   5.9597
     5.9946   5.9946   6.0529   6.0696   7.0282   7.6409   7.6409   7.8445
     7.9565   8.2587   8.2587   8.3548   9.1734   9.3134   9.8178   9.9123
     9.9123  10.5721  10.6401  10.6401  10.9149  11.4584  11.9053  11.9741
    11.9741  12.1412  12.2972  12.5659  12.5659  12.6913  12.8570  12.9085
    12.9085  13.8817  14.1904  14.2537  14.2537  14.4265  14.8036  14.8036
    15.2095  15.7222  16.4643  16.4643  16.4881  17.4941  17.5816  17.9431

     occupation numbers 
     1.0000   1.0000   1.0000   1.0000   0.0000   0.0000   0.0000   0.0000
     0.0000   0.0000   0.0000   0.0000   0.0000   0.0000   0.0000   0.0000
     0.0000   0.0000   0.0000   0.0000   0.0000   0.0000   0.0000   0.0000
     0.0000   0.0000   0.0000   0.0000   0.0000   0.0000   0.0000   0.0000
     0.0000   0.0000   0.0000   0.0000   0.0000   0.0000   0.0000   0.0000
     0.0000   0.0000   0.0000   0.0000   0.0000   0.0000   0.0000   0.0000
     0.0000   0.0000   0.0000   0.0000   0.0000   0.0000   0.0000   0.0000

          k = 0.4750 0.0000 0.0000 ( 10246 PWs)   bands (ev):

   -17.9859 -17.4295  -4.9507  -4.9506  -3.8576  -3.8576   4.6454   5.5781
     6.4668   6.5186   6.5186   6.5981   7.4443   7.5566   7.6508   7.6508
     7.7407   8.1667   8.1667   8.3294   8.6993   9.3024   9.3024   9.3159
     9.7017  10.8444  11.1004  11.1651  11.1651  11.3418  12.0849  12.2430
    12.2994  12.2994  12.4337  12.5015  12.5015  12.6697  12.8696  13.0848
    13.0848  13.4848  13.5763  13.6414  13.6414  13.8123  14.2041  14.2041
    15.7377  16.2503  16.8195  16.8802  16.9911  16.9911  17.3929  17.4125

     occupation numbers 
     1.0000   1.0000   1.0000   1.0000   0.0000   0.0000   0.0000   0.0000
     0.0000   0.0000   0.0000   0.0000   0.0000   0.0000   0.0000   0.0000
     0.0000   0.0000   0.0000   0.0000   0.0000   0.0000   0.0000   0.0000
     0.0000   0.0000   0.0000   0.0000   0.0000   0.0000   0.0000   0.0000
     0.0000   0.0000   0.0000   0.0000   0.0000   0.0000   0.0000   0.0000
     0.0000   0.0000   0.0000   0.0000   0.0000   0.0000   0.0000   0.0000
     0.0000   0.0000   0.0000   0.0000   0.0000   0.0000   0.0000   0.0000

          k = 0.5000 0.0000 0.0000 ( 10242 PWs)   bands (ev):

   -17.7898 -17.6325  -4.5816  -4.5816  -4.2499  -4.2499   5.0676   5.1622
     6.9146   6.9861   7.0568   7.0568   7.0848   7.0848   7.1507   7.1595
     8.1051   8.1223   8.7124   8.7124   8.7285   8.7285   8.7817   8.8529
    10.2467  10.2709  11.6473  11.6548  11.6676  11.7090  11.7090  11.7276
    11.7276  11.8486  12.9886  12.9928  12.9933  13.0518  13.0518  13.0626
    13.0626  13.2236  13.2299  13.2902  13.6171  13.6171  13.6449  13.6449
    16.2840  16.3053  16.7909  16.8237  16.9731  17.3118  17.5398  17.5398

     occupation numbers 
     1.0000   1.0000   1.0000   1.0000   0.0000   0.0000   0.0000   0.0000
     0.0000   0.0000   0.0000   0.0000   0.0000   0.0000   0.0000   0.0000
     0.0000   0.0000   0.0000   0.0000   0.0000   0.0000   0.0000   0.0000
     0.0000   0.0000   0.0000   0.0000   0.0000   0.0000   0.0000   0.0000
     0.0000   0.0000   0.0000   0.0000   0.0000   0.0000   0.0000   0.0000
     0.0000   0.0000   0.0000   0.0000   0.0000   0.0000   0.0000   0.0000
     0.0000   0.0000   0.0000   0.0000   0.0000   0.0000   0.0000   0.0000

          k = 0.5250 0.0000 0.0000 ( 10246 PWs)   bands (ev):

   -17.9859 -17.4295  -4.9507  -4.9506  -3.8576  -3.8576   4.6454   5.5781
     6.4668   6.5186   6.5186   6.5981   7.4443   7.5566   7.6508   7.6508
     7.7407   8.1667   8.1667   8.3294   8.6993   9.3024   9.3024   9.3159
     9.7017  10.8444  11.1004  11.1651  11.1651  11.3418  12.0849  12.2430
    12.2994  12.2994  12.4337  12.5015  12.5015  12.6697  12.8696  13.0848
    13.0848  13.4848  13.5763  13.6414  13.6414  13.8123  14.2041  14.2041
    15.7377  16.2503  16.8195  16.8802  16.9911  16.9911  17.3929  17.4125

     occupation numbers 
     1.0000   1.0000   1.0000   1.0000   0.0000   0.0000   0.0000   0.0000
     0.0000   0.0000   0.0000   0.0000   0.0000   0.0000   0.0000   0.0000
     0.0000   0.0000   0.0000   0.0000   0.0000   0.0000   0.0000   0.0000
     0.0000   0.0000   0.0000   0.0000   0.0000   0.0000   0.0000   0.0000
     0.0000   0.0000   0.0000   0.0000   0.0000   0.0000   0.0000   0.0000
     0.0000   0.0000   0.0000   0.0000   0.0000   0.0000   0.0000   0.0000
     0.0000   0.0000   0.0000   0.0000   0.0000   0.0000   0.0000   0.0000

          k = 0.5500 0.0000 0.0000 ( 10271 PWs)   bands (ev):

   -18.2357 -17.1592  -5.4232  -5.4232  -3.3152  -3.3152   4.1855   5.9597
     5.9946   5.9946   6.0529   6.0696   7.0282   7.6409   7.6409   7.8445
     7.9565   8.2587   8.2587   8.3548   9.1734   9.3134   9.8178   9.9123
     9.9123  10.5721  10.6401  10.6401  10.9149  11.4584  11.9053  11.9741
    11.9741  12.1412  12.2972  12.5659  12.5659  12.6913  12.8570  12.9085
    12.9085  13.8817  14.1904  14.2537  14.2537  14.4265  14.8036  14.8036
    15.2095  15.7222  16.4643  16.4643  16.4881  17.4941  17.5816  17.9431

     occupation numbers 
     1.0000   1.0000   1.0000   1.0000   0.0000   0.0000   0.0000   0.0000
     0.0000   0.0000   0.0000   0.0000   0.0000   0.0000   0.0000   0.0000
     0.0000   0.0000   0.0000   0.0000   0.0000   0.0000   0.0000   0.0000
     0.0000   0.0000   0.0000   0.0000   0.0000   0.0000   0.0000   0.0000
     0.0000   0.0000   0.0000   0.0000   0.0000   0.0000   0.0000   0.0000
     0.0000   0.0000   0.0000   0.0000   0.0000   0.0000   0.0000   0.0000
     0.0000   0.0000   0.0000   0.0000   0.0000   0.0000   0.0000   0.0000

          k = 0.5750 0.0000 0.0000 ( 10287 PWs)   bands (ev):

   -18.4803 -16.8809  -5.8797  -5.8797  -2.7427  -2.7427   3.7381   5.4987
     5.4987   5.5419   5.5698   6.4020   6.5284   7.1437   7.1437   7.4021
     8.4508   8.6735   8.8939   8.8939   8.9976   9.9556  10.0728  10.1432
    10.1432  10.3161  10.4842  10.5502  10.5502  11.4054  11.4752  11.4752
    11.6414  12.0748  12.0748  12.1010  12.2977  12.6833  13.4995  13.5448
    13.5448  14.3945  14.7098  14.8330  14.8941  14.8941  15.0692  15.2227
    15.4294  15.4294  15.9658  15.9658  16.0893  17.5855  17.8674  17.8674

     occupation numbers 
     1.0000   1.0000   1.0000   1.0000   0.0000   0.0000   0.0000   0.0000
     0.0000   0.0000   0.0000   0.0000   0.0000   0.0000   0.0000   0.0000
     0.0000   0.0000   0.0000   0.0000   0.0000   0.0000   0.0000   0.0000
     0.0000   0.0000   0.0000   0.0000   0.0000   0.0000   0.0000   0.0000
     0.0000   0.0000   0.0000   0.0000   0.0000   0.0000   0.0000   0.0000
     0.0000   0.0000   0.0000   0.0000   0.0000   0.0000   0.0000   0.0000
     0.0000   0.0000   0.0000   0.0000   0.0000   0.0000   0.0000   0.0000

          k = 0.6000 0.0000 0.0000 ( 10291 PWs)   bands (ev):

   -18.7159 -16.5989  -6.3136  -6.3135  -2.1472  -2.1472   3.3083   5.0309
     5.0309   5.0984   5.1116   6.0571   6.6747   6.6747   6.6865   6.9761
     8.2023   8.9679   9.5562   9.5562   9.6010   9.6688   9.6750   9.6750
    10.0434  10.6274  10.8405  10.9341  11.0046  11.0046  11.1700  11.2159
    11.2159  11.6113  11.6113  12.0721  12.7722  12.9382  14.1697  14.2087
    14.2087  14.2395  14.7515  14.9850  15.4954  15.4954  15.5044  15.5629
    15.5629  15.6755  15.7404  16.0809  16.0809  17.4014  17.4014  17.4058

     occupation numbers 
     1.0000   1.0000   1.0000   1.0000   0.0000   0.0000   0.0000   0.0000
     0.0000   0.0000   0.0000   0.0000   0.0000   0.0000   0.0000   0.0000
     0.0000   0.0000   0.0000   0.0000   0.0000   0.0000   0.0000   0.0000
     0.0000   0.0000   0.0000   0.0000   0.0000   0.0000   0.0000   0.0000
     0.0000   0.0000   0.0000   0.0000   0.0000   0.0000   0.0000   0.0000
     0.0000   0.0000   0.0000   0.0000   0.0000   0.0000   0.0000   0.0000
     0.0000   0.0000   0.0000   0.0000   0.0000   0.0000   0.0000   0.0000

          k = 0.6250 0.0000 0.0000 ( 10323 PWs)   bands (ev):

   -18.9412 -16.3152  -6.7231  -6.7231  -1.5314  -1.5314   2.8992   4.5912
     4.5912   4.6557   4.7026   5.6144   6.2340   6.2340   6.5465   6.8711
     7.7596   9.1583   9.2340   9.2340   9.5090   9.6352  10.2466  10.2466
    10.3686  10.4913  10.5626  10.5626  10.7273  11.1751  11.1751  11.3272
    11.3717  11.8051  11.9095  11.9095  13.3265  13.4718  13.7958  14.3090
    14.8705  14.8995  14.8995  15.0539  15.0539  15.2663  15.6334  16.2042
    16.2588  16.2588  16.4403  16.7571  16.7571  16.9634  16.9634  17.1338

     occupation numbers 
     1.0000   1.0000   1.0000   1.0000   0.0000   0.0000   0.0000   0.0000
     0.0000   0.0000   0.0000   0.0000   0.0000   0.0000   0.0000   0.0000
     0.0000   0.0000   0.0000   0.0000   0.0000   0.0000   0.0000   0.0000
     0.0000   0.0000   0.0000   0.0000   0.0000   0.0000   0.0000   0.0000
     0.0000   0.0000   0.0000   0.0000   0.0000   0.0000   0.0000   0.0000
     0.0000   0.0000   0.0000   0.0000   0.0000   0.0000   0.0000   0.0000
     0.0000   0.0000   0.0000   0.0000   0.0000   0.0000   0.0000   0.0000

          k = 0.6500 0.0000 0.0000 ( 10323 PWs)   bands (ev):

   -19.1552 -16.0320  -7.1077  -7.1077  -0.8971  -0.8971   2.5127   4.1798
     4.1798   4.2415   4.3167   5.2002   5.8216   5.8216   6.1642   6.8936
     7.3455   8.7442   8.8219   8.8219   9.2369  10.0771  10.1046  10.1490
    10.1490  10.3131  10.7663  10.7663  10.9639  10.9639  11.0970  11.5048
    11.9680  12.0555  12.6302  12.6302  13.3817  13.8256  13.8946  14.2004
    14.6406  14.6406  14.8779  15.5987  15.6167  15.6167  16.3215  16.5530
    16.5530  16.8217  16.8809  16.9325  16.9823  16.9823  17.1686  17.2889

     occupation numbers 
     1.0000   1.0000   1.0000   1.0000   0.0000   0.0000   0.0000   0.0000
     0.0000   0.0000   0.0000   0.0000   0.0000   0.0000   0.0000   0.0000
     0.0000   0.0000   0.0000   0.0000   0.0000   0.0000   0.0000   0.0000
     0.0000   0.0000   0.0000   0.0000   0.0000   0.0000   0.0000   0.0000
     0.0000   0.0000   0.0000   0.0000   0.0000   0.0000   0.0000   0.0000
     0.0000   0.0000   0.0000   0.0000   0.0000   0.0000   0.0000   0.0000
     0.0000   0.0000   0.0000   0.0000   0.0000   0.0000   0.0000   0.0000

          k = 0.6750 0.0000 0.0000 ( 10355 PWs)   bands (ev):

   -19.3572 -15.7512  -7.4668  -7.4668  -0.2464  -0.2463   2.1502   3.7967
     3.7967   3.8559   3.9552   4.8146   5.4376   5.4376   5.8027   6.7974
     6.9599   8.3586   8.4381   8.4381   8.8683   9.6915   9.7639   9.7639
     9.9275  10.3865  10.3865  10.7434  11.2320  11.7062  11.7062  11.8540
    12.5904  12.8124  12.9962  13.3780  13.3780  13.5093  14.2558  14.2558
    14.4126  14.5136  14.9571  16.1706  16.1706  16.3552  16.3595  16.3595
    16.4955  16.4989  16.9032  16.9645  16.9645  16.9765  17.0496  17.6895

     occupation numbers 
     1.0000   1.0000   1.0000   1.0000   0.0000   0.0000   0.0000   0.0000
     0.0000   0.0000   0.0000   0.0000   0.0000   0.0000   0.0000   0.0000
     0.0000   0.0000   0.0000   0.0000   0.0000   0.0000   0.0000   0.0000
     0.0000   0.0000   0.0000   0.0000   0.0000   0.0000   0.0000   0.0000
     0.0000   0.0000   0.0000   0.0000   0.0000   0.0000   0.0000   0.0000
     0.0000   0.0000   0.0000   0.0000   0.0000   0.0000   0.0000   0.0000
     0.0000   0.0000   0.0000   0.0000   0.0000   0.0000   0.0000   0.0000

          k = 0.7000 0.0000 0.0000 ( 10355 PWs)   bands (ev):

   -19.5465 -15.4750  -7.8001  -7.8001   0.4183   0.4183   1.8127   3.4419
     3.4419   3.4988   3.6188   4.4575   5.0820   5.0820   5.4660   6.6029
     6.6104   8.0016   8.0826   8.0826   8.5244   9.3345   9.4073   9.4073
     9.5704  10.0342  10.0342  10.9563  11.4400  12.4744  12.4744  12.6392
    12.6395  13.1524  13.2678  13.5979  13.8994  13.8994  14.1524  14.1524
    14.1661  15.0786  15.7424  15.8168  15.8168  16.1383  16.1857  16.5462
    16.6074  16.6074  16.6194  17.1260  17.1260  17.1408  17.8094  17.9643

     occupation numbers 
     1.0000   1.0000   1.0000   1.0000   0.0000   0.0000   0.0000   0.0000
     0.0000   0.0000   0.0000   0.0000   0.0000   0.0000   0.0000   0.0000
     0.0000   0.0000   0.0000   0.0000   0.0000   0.0000   0.0000   0.0000
     0.0000   0.0000   0.0000   0.0000   0.0000   0.0000   0.0000   0.0000
     0.0000   0.0000   0.0000   0.0000   0.0000   0.0000   0.0000   0.0000
     0.0000   0.0000   0.0000   0.0000   0.0000   0.0000   0.0000   0.0000
     0.0000   0.0000   0.0000   0.0000   0.0000   0.0000   0.0000   0.0000

          k = 0.7250 0.0000 0.0000 ( 10367 PWs)   bands (ev):

   -19.7226 -15.2058  -8.1074  -8.1074   1.0938   1.0938   1.5007   3.1155
     3.1155   3.1703   3.3080   4.1290   4.7549   4.7549   5.1550   6.2744
     6.3641   7.6731   7.7555   7.7555   8.2065   9.0060   9.0792   9.0792
     9.2419   9.7099   9.7099  10.7013  12.1741  12.3108  12.8240  13.2667
    13.2667  13.4536  13.5716  13.5716  13.8474  13.9937  14.4120  14.9524
    14.9524  15.4909  15.4909  15.7941  15.8098  15.8913  16.2177  16.2790
    16.2790  16.2909  16.5563  17.6417  17.6417  17.9139  17.9139  17.9547

     occupation numbers 
     1.0000   1.0000   1.0000   1.0000   0.0000   0.0000   0.0000   0.0000
     0.0000   0.0000   0.0000   0.0000   0.0000   0.0000   0.0000   0.0000
     0.0000   0.0000   0.0000   0.0000   0.0000   0.0000   0.0000   0.0000
     0.0000   0.0000   0.0000   0.0000   0.0000   0.0000   0.0000   0.0000
     0.0000   0.0000   0.0000   0.0000   0.0000   0.0000   0.0000   0.0000
     0.0000   0.0000   0.0000   0.0000   0.0000   0.0000   0.0000   0.0000
     0.0000   0.0000   0.0000   0.0000   0.0000   0.0000   0.0000   0.0000

          k = 0.7500 0.0000 0.0000 ( 10359 PWs)   bands (ev):

   -19.8849 -14.9459  -8.3885  -8.3885   1.2148   1.7762   1.7762   2.8178
     2.8178   2.8704   3.0234   3.8291   4.4561   4.4561   4.8701   5.9745
     6.0846   7.3732   7.4568   7.4568   7.9152   8.7061   8.7796   8.7796
     8.9420   9.4137   9.4137  10.4614  12.0109  12.5242  12.9501  13.2722
    13.2722  13.5569  14.0813  14.0813  14.2962  14.7598  15.1933  15.1933
    15.2546  15.5100  15.6106  15.7769  15.7769  15.9178  15.9790  15.9790
    15.9910  16.5637  17.3470  17.3470  17.3988  18.2370  18.7176  18.7176

     occupation numbers 
     1.0000   1.0000   1.0000   1.0000   0.0000   0.0000   0.0000   0.0000
     0.0000   0.0000   0.0000   0.0000   0.0000   0.0000   0.0000   0.0000
     0.0000   0.0000   0.0000   0.0000   0.0000   0.0000   0.0000   0.0000
     0.0000   0.0000   0.0000   0.0000   0.0000   0.0000   0.0000   0.0000
     0.0000   0.0000   0.0000   0.0000   0.0000   0.0000   0.0000   0.0000
     0.0000   0.0000   0.0000   0.0000   0.0000   0.0000   0.0000   0.0000
     0.0000   0.0000   0.0000   0.0000   0.0000   0.0000   0.0000   0.0000

          k = 0.7750 0.0000 0.0000 ( 10403 PWs)   bands (ev):

   -20.0330 -14.6983  -8.6432  -8.6432   0.9554   2.4524   2.4524   2.5565
     2.5565   2.5990   2.7651   3.5578   4.1858   4.1858   4.6117   5.7032
     5.7915   7.1019   7.1866   7.1866   7.6510   8.4347   8.5085   8.5085
     8.6706   9.1456   9.1456  10.2400  11.7396  12.2529  13.0013  13.0013
    13.2924  13.7632  14.9141  14.9141  14.9244  14.9244  15.1675  15.2386
    15.3563  15.5655  15.6464  15.7077  15.7077  15.7196  16.1257  16.6235
    16.6235  17.0801  17.0801  17.3698  18.0611  18.2698  18.4949  19.5254

     occupation numbers 
     1.0000   1.0000   1.0000   1.0000   0.0000   0.0000   0.0000   0.0000
     0.0000   0.0000   0.0000   0.0000   0.0000   0.0000   0.0000   0.0000
     0.0000   0.0000   0.0000   0.0000   0.0000   0.0000   0.0000   0.0000
     0.0000   0.0000   0.0000   0.0000   0.0000   0.0000   0.0000   0.0000
     0.0000   0.0000   0.0000   0.0000   0.0000   0.0000   0.0000   0.0000
     0.0000   0.0000   0.0000   0.0000   0.0000   0.0000   0.0000   0.0000
     0.0000   0.0000   0.0000   0.0000   0.0000   0.0000   0.0000   0.0000

          k = 0.8000 0.0000 0.0000 ( 10395 PWs)   bands (ev):

   -20.1666 -14.4655  -8.8714  -8.8714   0.7228   2.3045   2.3045   2.3562
     2.5336   3.1433   3.1433   3.3150   3.9442   3.9442   4.3801   5.4604
     5.4998   6.8591   6.9447   6.9447   7.4141   8.1919   8.2660   8.2660
     8.4278   8.9056   8.9056  10.0390  11.4968  12.0102  12.7589  12.7589
    13.0554  14.6097  14.6829  14.6829  14.9959  15.1277  15.4036  15.4649
    15.4649  15.4768  15.7605  15.7605  16.0672  16.4050  16.8412  16.8412
    17.0255  17.4880  17.4880  17.8903  18.2142  18.2522  19.1693  19.8530

     occupation numbers 
     1.0000   1.0000   1.0000   1.0000   0.0000   0.0000   0.0000   0.0000
     0.0000   0.0000   0.0000   0.0000   0.0000   0.0000   0.0000   0.0000
     0.0000   0.0000   0.0000   0.0000   0.0000   0.0000   0.0000   0.0000
     0.0000   0.0000   0.0000   0.0000   0.0000   0.0000   0.0000   0.0000
     0.0000   0.0000   0.0000   0.0000   0.0000   0.0000   0.0000   0.0000
     0.0000   0.0000   0.0000   0.0000   0.0000   0.0000   0.0000   0.0000
     0.0000   0.0000   0.0000   0.0000   0.0000   0.0000   0.0000   0.0000

          k = 0.8250 0.0000 0.0000 ( 10375 PWs)   bands (ev):

   -20.2852 -14.2505  -9.0730  -9.0730   0.5171   2.0920   2.0920   2.1420
     2.3290   3.1007   3.7250   3.7250   3.8165   3.8165   4.1755   5.2206
     5.2462   6.6449   6.7313   6.7313   7.2048   7.9777   8.0520   8.0520
     8.2136   8.6938   8.6938   9.8597  11.2827  11.7961  12.5450  12.5450
    12.8459  14.4701  14.4701  14.7817  14.9241  15.1894  15.2507  15.2507
    15.2626  15.4876  16.6056  16.6056  16.6307  16.6307  16.9956  17.2772
    17.7343  17.9537  18.0381  18.3612  18.3612  19.0894  19.6388  19.8933

     occupation numbers 
     1.0000   1.0000   1.0000   1.0000   0.0000   0.0000   0.0000   0.0000
     0.0000   0.0000   0.0000   0.0000   0.0000   0.0000   0.0000   0.0000
     0.0000   0.0000   0.0000   0.0000   0.0000   0.0000   0.0000   0.0000
     0.0000   0.0000   0.0000   0.0000   0.0000   0.0000   0.0000   0.0000
     0.0000   0.0000   0.0000   0.0000   0.0000   0.0000   0.0000   0.0000
     0.0000   0.0000   0.0000   0.0000   0.0000   0.0000   0.0000   0.0000
     0.0000   0.0000   0.0000   0.0000   0.0000   0.0000   0.0000   0.0000

          k = 0.8500 0.0000 0.0000 ( 10351 PWs)   bands (ev):

   -20.3885 -14.0564  -9.2479  -9.2479   0.3386   1.9074   1.9074   1.9563
     2.1513   2.9151   3.5447   3.5447   3.9979   4.4557   4.4557   4.9629
     5.0605   6.4593   6.5463   6.5463   7.0231   7.7920   7.8665   7.8665
     8.0279   8.5102   8.5102   9.7029  11.0970  11.6105  12.3596  12.3596
    12.6640  14.2856  14.2856  14.5960  14.7471  15.0038  15.0650  15.0650
    15.0769  16.3945  16.4472  16.4472  17.4223  17.4223  17.5931  17.8524
    17.9525  18.1801  18.9106  19.2218  19.2218  19.4532  19.7080  19.7080

     occupation numbers 
     1.0000   1.0000   1.0000   1.0000   0.0000   0.0000   0.0000   0.0000
     0.0000   0.0000   0.0000   0.0000   0.0000   0.0000   0.0000   0.0000
     0.0000   0.0000   0.0000   0.0000   0.0000   0.0000   0.0000   0.0000
     0.0000   0.0000   0.0000   0.0000   0.0000   0.0000   0.0000   0.0000
     0.0000   0.0000   0.0000   0.0000   0.0000   0.0000   0.0000   0.0000
     0.0000   0.0000   0.0000   0.0000   0.0000   0.0000   0.0000   0.0000
     0.0000   0.0000   0.0000   0.0000   0.0000   0.0000   0.0000   0.0000

          k = 0.8750 0.0000 0.0000 ( 10359 PWs)   bands (ev):

   -20.4764 -13.8860  -9.3960  -9.3960   0.1874   1.7512   1.7512   1.7992
     2.0009   2.7580   3.3883   3.3883   3.8475   4.7335   4.9034   5.0612
     5.0612   6.3022   6.3898   6.3898   6.8693   7.6349   7.7096   7.7096
     7.8708   8.3548   8.3548   9.5693  10.9399  11.4534  12.2027  12.2027
    12.5100  14.1295  14.1295  14.4389  14.5967  14.8467  14.9079  14.9079
    14.9198  16.2923  16.2923  17.3280  17.4712  17.6954  18.1370  18.1370
    18.9379  19.1102  19.2961  19.5510  19.5510  19.7370  19.8959  20.0205

     occupation numbers 
     1.0000   1.0000   1.0000   1.0000   0.0000   0.0000   0.0000   0.0000
     0.0000   0.0000   0.0000   0.0000   0.0000   0.0000   0.0000   0.0000
     0.0000   0.0000   0.0000   0.0000   0.0000   0.0000   0.0000   0.0000
     0.0000   0.0000   0.0000   0.0000   0.0000   0.0000   0.0000   0.0000
     0.0000   0.0000   0.0000   0.0000   0.0000   0.0000   0.0000   0.0000
     0.0000   0.0000   0.0000   0.0000   0.0000   0.0000   0.0000   0.0000
     0.0000   0.0000   0.0000   0.0000   0.0000   0.0000   0.0000   0.0000

          k = 0.9000 0.0000 0.0000 ( 10355 PWs)   bands (ev):

   -20.5486 -13.7420  -9.5172  -9.5172   0.0635   1.6234   1.6234   1.6707
     1.8777   2.6294   3.2603   3.2603   3.7244   4.5383   4.7749   5.6100
     5.6100   6.1737   6.2618   6.2618   6.7434   7.5064   7.5811   7.5811
     7.7422   8.2276   8.2276   9.4595  10.8114  11.3249  12.0744  12.0744
    12.3839  14.0017  14.0017  14.3104  14.4733  14.7181  14.7794  14.7794
    14.7913  16.1654  16.1654  17.3690  17.5669  18.2862  18.6032  18.6032
    19.1676  19.4229  19.4229  19.6085  19.9519  20.0648  20.3295  20.3296

     occupation numbers 
     1.0000   1.0000   1.0000   1.0000   0.0000   0.0000   0.0000   0.0000
     0.0000   0.0000   0.0000   0.0000   0.0000   0.0000   0.0000   0.0000
     0.0000   0.0000   0.0000   0.0000   0.0000   0.0000   0.0000   0.0000
     0.0000   0.0000   0.0000   0.0000   0.0000   0.0000   0.0000   0.0000
     0.0000   0.0000   0.0000   0.0000   0.0000   0.0000   0.0000   0.0000
     0.0000   0.0000   0.0000   0.0000   0.0000   0.0000   0.0000   0.0000
     0.0000   0.0000   0.0000   0.0000   0.0000   0.0000   0.0000   0.0000

          k = 0.9250 0.0000 0.0000 ( 10335 PWs)   bands (ev):

   -20.6049 -13.6271  -9.6116  -9.6116  -0.0329   1.5239   1.5239   1.5707
     1.7818   2.5294   3.1607   3.1607   3.6286   4.3817   4.6749   6.0737
     6.0778   6.0778   6.1634   6.1634   6.6454   7.4064   7.4813   7.4813
     7.6423   8.1286   8.1286   9.3736  10.7115  11.2250  11.9745  11.9745
    12.2858  13.9023  13.9023  14.2105  14.3772  14.6181  14.6794  14.6794
    14.6913  16.0667  16.0667  17.2887  17.4669  18.7207  18.7207  19.0676
    19.2632  19.3233  19.3233  19.5085  20.2331  20.2331  20.9945  21.0373

     occupation numbers 
     1.0000   1.0000   1.0000   1.0000   0.0000   0.0000   0.0000   0.0000
     0.0000   0.0000   0.0000   0.0000   0.0000   0.0000   0.0000   0.0000
     0.0000   0.0000   0.0000   0.0000   0.0000   0.0000   0.0000   0.0000
     0.0000   0.0000   0.0000   0.0000   0.0000   0.0000   0.0000   0.0000
     0.0000   0.0000   0.0000   0.0000   0.0000   0.0000   0.0000   0.0000
     0.0000   0.0000   0.0000   0.0000   0.0000   0.0000   0.0000   0.0000
     0.0000   0.0000   0.0000   0.0000   0.0000   0.0000   0.0000   0.0000

          k = 0.9500 0.0000 0.0000 ( 10355 PWs)   bands (ev):

   -20.6452 -13.5434  -9.6790  -9.6790  -0.1018   1.4529   1.4529   1.4993
     1.7132   2.4580   3.0895   3.0895   3.5601   4.2673   4.6035   6.0023
     6.0905   6.0905   6.4427   6.4427   6.5753   7.3350   7.4099   7.4099
     7.5708   8.0578   8.0578   9.3122  10.6401  11.1536  11.9032  11.9032
    12.2156  13.8313  13.8313  14.1391  14.3085  14.5467  14.6080  14.6080
    14.6199  15.9961  15.9961  17.2308  17.3955  18.6271  18.6271  18.9962
    19.2521  19.2521  19.4371  20.1634  20.1634  20.2480  21.1917  21.3779

     occupation numbers 
     1.0000   1.0000   1.0000   1.0000   0.0000   0.0000   0.0000   0.0000
     0.0000   0.0000   0.0000   0.0000   0.0000   0.0000   0.0000   0.0000
     0.0000   0.0000   0.0000   0.0000   0.0000   0.0000   0.0000   0.0000
     0.0000   0.0000   0.0000   0.0000   0.0000   0.0000   0.0000   0.0000
     0.0000   0.0000   0.0000   0.0000   0.0000   0.0000   0.0000   0.0000
     0.0000   0.0000   0.0000   0.0000   0.0000   0.0000   0.0000   0.0000
     0.0000   0.0000   0.0000   0.0000   0.0000   0.0000   0.0000   0.0000

          k = 0.9750 0.0000 0.0000 ( 10395 PWs)   bands (ev):

   -20.6695 -13.4925  -9.7195  -9.7195  -0.1431   1.4103   1.4103   1.4564
     1.6721   2.4152   3.0468   3.0468   3.5190   4.1976   4.5607   5.9594
     6.0480   6.0480   6.5333   6.6739   6.6739   7.2921   7.3671   7.3671
     7.5280   8.0153   8.0153   9.2752  10.5972  11.1107  11.8604  11.8604
    12.1736  13.7887  13.7887  14.0962  14.2672  14.5039  14.5652  14.5652
    14.5770  15.9537  15.9537  17.1958  17.3527  18.5065  18.5065  18.9534
    19.2094  19.2094  19.3943  20.1214  20.1214  21.1489  21.1988  21.3483

     occupation numbers 
     1.0000   1.0000   1.0000   1.0000   0.0000   0.0000   0.0000   0.0000
     0.0000   0.0000   0.0000   0.0000   0.0000   0.0000   0.0000   0.0000
     0.0000   0.0000   0.0000   0.0000   0.0000   0.0000   0.0000   0.0000
     0.0000   0.0000   0.0000   0.0000   0.0000   0.0000   0.0000   0.0000
     0.0000   0.0000   0.0000   0.0000   0.0000   0.0000   0.0000   0.0000
     0.0000   0.0000   0.0000   0.0000   0.0000   0.0000   0.0000   0.0000
     0.0000   0.0000   0.0000   0.0000   0.0000   0.0000   0.0000   0.0000

     highest occupied, lowest unoccupied level (ev):    -4.5816   -4.2499

     Writing output data file ./carbyne.save/
 
     init_run     :      1.16s CPU      0.97s WALL (       1 calls)
     electrons    :     32.15s CPU     20.23s WALL (       1 calls)

     Called by init_run:
     wfcinit      :      0.00s CPU      0.03s WALL (       1 calls)
     wfcinit:atom :      0.01s CPU      0.01s WALL (       2 calls)
     wfcinit:wfcr :      1.22s CPU      0.63s WALL (       2 calls)
     potinit      :      0.61s CPU      0.53s WALL (       1 calls)
     hinit0       :      0.39s CPU      0.27s WALL (       1 calls)

     Called by electrons:
     c_bands      :     32.15s CPU     20.22s WALL (       1 calls)
     v_of_rho     :      0.38s CPU      0.30s WALL (       1 calls)
     v_h          :      0.04s CPU      0.02s WALL (       1 calls)
     v_xc         :      0.35s CPU      0.28s WALL (       1 calls)
     newd         :      0.03s CPU      0.03s WALL (       1 calls)
     PAW_pot      :      0.06s CPU      0.05s WALL (       1 calls)

     Called by c_bands:
     init_us_2    :      0.01s CPU      0.01s WALL (       2 calls)
     cegterg      :     24.05s CPU     12.73s WALL (       4 calls)

     Called by sum_band:

     Called by *egterg:
     cdiaghg      :      0.29s CPU      0.24s WALL (      57 calls)
     cegterg:over :      1.55s CPU      0.98s WALL (      55 calls)
     cegterg:upda :      1.51s CPU      0.80s WALL (      55 calls)
     cegterg:last :      2.74s CPU      1.60s WALL (      37 calls)
     h_psi        :     18.15s CPU      9.18s WALL (      61 calls)
     s_psi        :      0.36s CPU      0.18s WALL (      61 calls)
     g_psi        :      0.15s CPU      0.08s WALL (      55 calls)

     Called by h_psi:
     h_psi:calbec :      0.28s CPU      0.14s WALL (      61 calls)
     vloc_psi     :     17.35s CPU      8.76s WALL (      61 calls)
     add_vuspsi   :      0.37s CPU      0.19s WALL (      61 calls)

     General routines
     calbec       :      0.28s CPU      0.14s WALL (      61 calls)
     fft          :      0.10s CPU      0.08s WALL (      13 calls)
     ffts         :      0.00s CPU      0.00s WALL (       1 calls)
     fftw         :     13.94s CPU      7.05s WALL (    4222 calls)
     interpolate  :      0.02s CPU      0.02s WALL (       1 calls)
     davcio       :      0.01s CPU      0.03s WALL (       4 calls)
 
     Parallel routines

     PAW routines
     PAW_pot      :      0.06s CPU      0.05s WALL (       1 calls)
 
     PWSCF        :     33.55s CPU     21.88s WALL

 
   This run was terminated on:   9:34:50  25Jun2021            

=------------------------------------------------------------------------------=
   JOB DONE.
=------------------------------------------------------------------------------=
