
     Program PHONON v.6.7MaX starts on 25Jun2021 at  8:41:37 

     This program is part of the open-source Quantum ESPRESSO suite
     for quantum simulation of materials; please cite
         "P. Giannozzi et al., J. Phys.:Condens. Matter 21 395502 (2009);
         "P. Giannozzi et al., J. Phys.:Condens. Matter 29 465901 (2017);
          URL http://www.quantum-espresso.org", 
     in publications or presentations arising from this work. More details at
     http://www.quantum-espresso.org/quote

     Parallel version (MPI & OpenMP), running on      56 processor cores
     Number of MPI processes:                56
     Threads/MPI process:                     1

     MPI processes distributed on     2 nodes
     K-points division:     npool     =      56
     Waiting for input...
     Reading input from standard input

     Reading xml data from directory:

     ./carbyne.save/
     file C.pbe-n-kjpaw_psl.1.0.0.UPF: wavefunction(s)  2S 2P renormalized

     IMPORTANT: XC functional enforced from input :
     Exchange-correlation= PBE
                           (   1   4   3   4   0   0   0)
     Any further DFT definition will be discarded
     Please, verify this is what you really want

 
     G-vector sticks info
     --------------------
     sticks:   dense  smooth     PW     G-vecs:    dense   smooth      PW
     Sum        2927    1445    425               233967    82581   13359
 

     Check: negative core charge=   -0.000002

     negative rho (up, down):  1.845E-04 0.000E+00
     Message from routine divide_et_impera:
     suboptimal parallelization: some nodes have no k-points
     Reading collected, re-writing distributed wavefunctions


     Dynamical matrices for (40, 1, 1)  uniform grid of q-points
     (  21 q-points):
       N         xq(1)         xq(2)         xq(3) 
       1   0.000000000   0.000000000   0.000000000
       2   0.025000000   0.000000000   0.000000000
       3   0.050000000   0.000000000   0.000000000
       4   0.075000000   0.000000000   0.000000000
       5   0.100000000   0.000000000   0.000000000
       6   0.125000000   0.000000000   0.000000000
       7   0.150000000   0.000000000   0.000000000
       8   0.175000000   0.000000000   0.000000000
       9   0.200000000   0.000000000   0.000000000
      10   0.225000000   0.000000000   0.000000000
      11   0.250000000   0.000000000   0.000000000
      12   0.275000000   0.000000000   0.000000000
      13   0.300000000   0.000000000   0.000000000
      14   0.325000000   0.000000000   0.000000000
      15   0.350000000   0.000000000   0.000000000
      16   0.375000000   0.000000000   0.000000000
      17   0.400000000   0.000000000   0.000000000
      18   0.425000000   0.000000000   0.000000000
      19   0.450000000   0.000000000   0.000000000
      20   0.475000000   0.000000000   0.000000000
      21  -0.500000000   0.000000000   0.000000000

     Saving dvscf to file. Distribute only q points, not irreducible represetations.

     Calculation of q =    0.0000000   0.0000000   0.0000000

     phonons calculation                                                        

     bravais-lattice index     =            0
     lattice parameter (alat)  =       4.8482  a.u.
     unit-cell volume          =    1731.3136 (a.u.)^3
     number of atoms/cell      =            2
     number of atomic types    =            1
     kinetic-energy cut-off    =      50.0000  Ry
     charge density cut-off    =     400.0000  Ry
     convergence threshold     =      1.0E-12
     beta                      =       0.7000
     number of iterations used =            4
     Exchange-correlation= PBE
                           (   1   4   3   4   0   0   0)


     celldm(1)=    4.84817  celldm(2)=    0.00000  celldm(3)=    0.00000
     celldm(4)=    0.00000  celldm(5)=    0.00000  celldm(6)=    0.00000

     crystal axes: (cart. coord. in units of alat)
               a(1) = (  1.0000  0.0000  0.0000 )  
               a(2) = (  0.0000  3.8978  0.0000 )  
               a(3) = (  0.0000  0.0000  3.8978 )  

     reciprocal axes: (cart. coord. in units 2 pi/alat)
               b(1) = (  1.0000  0.0000  0.0000 )  
               b(2) = (  0.0000  0.2566  0.0000 )  
               b(3) = (  0.0000  0.0000  0.2566 )  


     Atoms inside the unit cell: 

     Cartesian axes

     site n.  atom      mass           positions (alat units)
        1     C   12.0107   tau(    1) = (    0.00015    1.94891    1.94891  )
        2     C   12.0107   tau(    2) = (    0.49282    1.94891    1.94891  )

     Computing dynamical matrix for 
                    q = (   0.0000000   0.0000000   0.0000000 )
 
      9 Sym.Ops. (with q -> -q+G )


     G cutoff =  238.1531  ( 233967 G-vectors)     FFT grid: ( 32,125,125)
     G cutoff =  119.0766  (  82581 G-vectors)  smooth grid: ( 24, 90, 90)
     number of k points=    21

     PseudoPot. # 1 for C  read from file:
     ./pseudo/C.pbe-n-kjpaw_psl.1.0.0.UPF
     MD5 check sum: 6fec8efd722f5d988670a8dc528584a2
     Pseudo is Projector augmented-wave + core cor, Zval =  4.0
     Generated using "atomic" code by A. Dal Corso  v.5.1.2
     Shape of augmentation charge: PSQ
     Using radial grid of 1073 points,  4 beta functions with: 
                l(1) =   0
                l(2) =   0
                l(3) =   1
                l(4) =   1
     Q(r) pseudized with 0 coefficients 


     Mode symmetry, C_4v (4mm)  point group:


     Electric field:
     Dielectric constant
     Born effective charges in two ways 


     Atomic displacements:
     There are    4 irreducible representations

     Representation     1      1 modes -  To be done

     Representation     2      1 modes -  To be done

     Representation     3      2 modes -  To be done

     Representation     4      2 modes -  To be done



     Alpha used in Ewald sum =   2.8000

     negative rho (up, down):  1.845E-04 0.000E+00
     PHONON       :     18.61s CPU     22.42s WALL


     Electric Fields Calculation

      iter #   1 total cpu time :    29.9 secs   av.it.:   5.0
      thresh= 1.000E-02 alpha_mix =  0.700 |ddv_scf|^2 =  2.274E-06

      iter #   2 total cpu time :    36.0 secs   av.it.:   8.7
      thresh= 1.508E-04 alpha_mix =  0.700 |ddv_scf|^2 =  6.334E-06

      iter #   3 total cpu time :    42.9 secs   av.it.:   7.3
      thresh= 2.517E-04 alpha_mix =  0.700 |ddv_scf|^2 =  9.700E-08

      iter #   4 total cpu time :    50.2 secs   av.it.:   8.7
      thresh= 3.115E-05 alpha_mix =  0.700 |ddv_scf|^2 =  2.557E-09

      iter #   5 total cpu time :    59.6 secs   av.it.:   9.0
      thresh= 5.057E-06 alpha_mix =  0.700 |ddv_scf|^2 =  1.118E-11

      iter #   6 total cpu time :    64.6 secs   av.it.:   8.7
      thresh= 3.344E-07 alpha_mix =  0.700 |ddv_scf|^2 =  1.333E-13

     End of electric fields calculation

          Dielectric constant in cartesian axis 

          (     226.087784513       0.000000000       0.000000000 )
          (       0.000000000       1.083469430       0.000000000 )
          (       0.000000000       0.000000000       1.083469430 )

          Effective charges (d Force / dE) in cartesian axis

           atom      1   C  
      Ex  (       -1.22294        0.00000        0.00000 )
      Ey  (        0.00000        0.00179       -0.00000 )
      Ez  (        0.00000        0.00000        0.00179 )
           atom      2   C  
      Ex  (       -1.22221        0.00000        0.00000 )
      Ey  (        0.00000        0.00165        0.00000 )
      Ez  (        0.00000        0.00000        0.00165 )


     Representation #   1 mode #   1

     Self-consistent Calculation

      iter #   1 total cpu time :    77.8 secs   av.it.:   5.9
      thresh= 1.000E-02 alpha_mix =  0.700 |ddv_scf|^2 =  1.835E-07

      iter #   2 total cpu time :    83.5 secs   av.it.:  10.1
      thresh= 4.284E-05 alpha_mix =  0.700 |ddv_scf|^2 =  1.670E-08

      iter #   3 total cpu time :    86.0 secs   av.it.:  10.4
      thresh= 1.292E-05 alpha_mix =  0.700 |ddv_scf|^2 =  4.560E-09

      iter #   4 total cpu time :    92.1 secs   av.it.:  10.4
      thresh= 6.753E-06 alpha_mix =  0.700 |ddv_scf|^2 =  4.363E-09

      iter #   5 total cpu time :    94.7 secs   av.it.:   9.9
      thresh= 6.606E-06 alpha_mix =  0.700 |ddv_scf|^2 =  7.969E-13

     End of self-consistent calculation

     Convergence has been achieved 


     Representation #   2 mode #   2

     Self-consistent Calculation

      iter #   1 total cpu time :   103.4 secs   av.it.:   5.9
      thresh= 1.000E-02 alpha_mix =  0.700 |ddv_scf|^2 =  2.089E-07

      iter #   2 total cpu time :   105.8 secs   av.it.:  10.1
      thresh= 4.570E-05 alpha_mix =  0.700 |ddv_scf|^2 =  1.940E-08

      iter #   3 total cpu time :   108.7 secs   av.it.:  10.3
      thresh= 1.393E-05 alpha_mix =  0.700 |ddv_scf|^2 =  4.735E-09

      iter #   4 total cpu time :   111.3 secs   av.it.:  10.4
      thresh= 6.881E-06 alpha_mix =  0.700 |ddv_scf|^2 =  4.485E-09

      iter #   5 total cpu time :   113.8 secs   av.it.:   9.9
      thresh= 6.697E-06 alpha_mix =  0.700 |ddv_scf|^2 =  1.030E-12

      iter #   6 total cpu time :   116.3 secs   av.it.:  10.5
      thresh= 1.015E-07 alpha_mix =  0.700 |ddv_scf|^2 =  1.830E-14

     End of self-consistent calculation

     Convergence has been achieved 


     Representation #   3 modes #   3   4

     Self-consistent Calculation

      iter #   1 total cpu time :   123.7 secs   av.it.:   5.7
      thresh= 1.000E-02 alpha_mix =  0.700 |ddv_scf|^2 =  9.689E-08

      iter #   2 total cpu time :   129.1 secs   av.it.:  10.1
      thresh= 3.113E-05 alpha_mix =  0.700 |ddv_scf|^2 =  1.172E-08

      iter #   3 total cpu time :   134.0 secs   av.it.:  10.1
      thresh= 1.082E-05 alpha_mix =  0.700 |ddv_scf|^2 =  8.147E-10

      iter #   4 total cpu time :   137.9 secs   av.it.:  10.0
      thresh= 2.854E-06 alpha_mix =  0.700 |ddv_scf|^2 =  2.283E-13

     End of self-consistent calculation

     Convergence has been achieved 


     Representation #   4 modes #   5   6

     Self-consistent Calculation

      iter #   1 total cpu time :   145.6 secs   av.it.:   5.7
      thresh= 1.000E-02 alpha_mix =  0.700 |ddv_scf|^2 =  1.097E-07

      iter #   2 total cpu time :   150.1 secs   av.it.:  10.1
      thresh= 3.313E-05 alpha_mix =  0.700 |ddv_scf|^2 =  1.292E-08

      iter #   3 total cpu time :   154.7 secs   av.it.:  10.1
      thresh= 1.137E-05 alpha_mix =  0.700 |ddv_scf|^2 =  9.453E-10

      iter #   4 total cpu time :   158.8 secs   av.it.:  10.0
      thresh= 3.075E-06 alpha_mix =  0.700 |ddv_scf|^2 =  2.505E-13

     End of self-consistent calculation

     Convergence has been achieved 
 
     Number of q in the star =    1
     List of q in the star:
          1   0.000000000   0.000000000   0.000000000

          Dielectric constant in cartesian axis 

          (     226.087784513       0.000000000       0.000000000 )
          (       0.000000000       1.083469430       0.000000000 )
          (       0.000000000       0.000000000       1.083469430 )

          Effective charges (d Force / dE) in cartesian axis

           atom      1   C  
      Ex  (       -1.22294        0.00000        0.00000 )
      Ey  (        0.00000        0.00179       -0.00000 )
      Ez  (        0.00000        0.00000        0.00179 )
           atom      2   C  
      Ex  (       -1.22221        0.00000        0.00000 )
      Ey  (        0.00000        0.00165        0.00000 )
      Ez  (        0.00000        0.00000        0.00165 )

          Effective charges (d P / du) in cartesian axis 

           atom      1   C  
      Px  (       -1.23208        0.00000        0.00000 )
      Py  (        0.00000        0.00045       -0.00000 )
      Pz  (        0.00000       -0.00000        0.00045 )
           atom      2   C  
      Px  (       -1.40603        0.00000        0.00000 )
      Py  (        0.00000        0.00025        0.00000 )
      Pz  (        0.00000        0.00000        0.00025 )

     Diagonalizing the dynamical matrix

     q = (    0.000000000   0.000000000   0.000000000 ) 

 **************************************************************************
     freq (    1) =      -1.862760 [THz] =     -62.134992 [cm-1]
     freq (    2) =      -1.862760 [THz] =     -62.134992 [cm-1]
     freq (    3) =      -1.778995 [THz] =     -59.340894 [cm-1]
     freq (    4) =      14.819060 [THz] =     494.310648 [cm-1]
     freq (    5) =      14.819060 [THz] =     494.310648 [cm-1]
     freq (    6) =      43.911856 [THz] =    1464.741835 [cm-1]
 **************************************************************************

     Mode symmetry, C_4v (4mm)  point group:

     freq (   1-   2) =        -62.1  [cm-1]   --> E    G_5 D_5    I+R
     freq (   3-   3) =        -59.3  [cm-1]   --> A_1  G_1 D_1    I+R
     freq (   4-   5) =        494.3  [cm-1]   --> E    G_5 D_5    I+R
     freq (   6-   6) =       1464.7  [cm-1]   --> A_1  G_1 D_1    I+R

     Calculation of q =    0.0250000   0.0000000   0.0000000

     Subspace diagonalization in iterative solution of the eigenvalue problem:
     a serial algorithm will be used

     Message from routine divide_et_impera:
     suboptimal parallelization: some nodes have no k-points
 
     G-vector sticks info
     --------------------
     sticks:   dense  smooth     PW     G-vecs:    dense   smooth      PW
     Sum        2927    1445    425               233967    82581   13359
 

     Title: 
     phonons calculation                                                        


     bravais-lattice index     =            0
     lattice parameter (alat)  =       4.8482  a.u.
     unit-cell volume          =    1731.3136 (a.u.)^3
     number of atoms/cell      =            2
     number of atomic types    =            1
     number of electrons       =         8.00
     number of Kohn-Sham states=           56
     kinetic-energy cutoff     =      50.0000  Ry
     charge density cutoff     =     400.0000  Ry
     Exchange-correlation= PBE
                           (   1   4   3   4   0   0   0)

     celldm(1)=   4.848172  celldm(2)=   0.000000  celldm(3)=   0.000000
     celldm(4)=   0.000000  celldm(5)=   0.000000  celldm(6)=   0.000000

     crystal axes: (cart. coord. in units of alat)
               a(1) = (   1.000000   0.000000   0.000000 )  
               a(2) = (   0.000000   3.897812   0.000000 )  
               a(3) = (   0.000000   0.000000   3.897812 )  

     reciprocal axes: (cart. coord. in units 2 pi/alat)
               b(1) = (  1.000000  0.000000  0.000000 )  
               b(2) = (  0.000000  0.256554  0.000000 )  
               b(3) = (  0.000000  0.000000  0.256554 )  


     PseudoPot. # 1 for C  read from file:
     ./pseudo/C.pbe-n-kjpaw_psl.1.0.0.UPF
     MD5 check sum: 6fec8efd722f5d988670a8dc528584a2
     Pseudo is Projector augmented-wave + core cor, Zval =  4.0
     Generated using "atomic" code by A. Dal Corso  v.5.1.2
     Shape of augmentation charge: PSQ
     Using radial grid of 1073 points,  4 beta functions with: 
                l(1) =   0
                l(2) =   0
                l(3) =   1
                l(4) =   1
     Q(r) pseudized with 0 coefficients 


     atomic species   valence    mass     pseudopotential
        C              4.00    12.01070     C ( 1.00)

      8 Sym. Ops. (no inversion) found



   Cartesian axes

     site n.     atom                  positions (alat units)
         1           C   tau(   1) = (   0.0001503   1.9489059   1.9489059  )
         2           C   tau(   2) = (   0.4928235   1.9489059   1.9489059  )

     number of k points=    80
                       cart. coord. in units 2pi/alat
        k(    1) = (   0.0000000   0.0000000   0.0000000), wk =   0.0500000
        k(    2) = (   0.0250000   0.0000000   0.0000000), wk =   0.0000000
        k(    3) = (   0.0250000   0.0000000   0.0000000), wk =   0.0500000
        k(    4) = (   0.0500000   0.0000000   0.0000000), wk =   0.0000000
        k(    5) = (   0.0500000   0.0000000   0.0000000), wk =   0.0500000
        k(    6) = (   0.0750000   0.0000000   0.0000000), wk =   0.0000000
        k(    7) = (   0.0750000   0.0000000   0.0000000), wk =   0.0500000
        k(    8) = (   0.1000000   0.0000000   0.0000000), wk =   0.0000000
        k(    9) = (   0.1000000   0.0000000   0.0000000), wk =   0.0500000
        k(   10) = (   0.1250000   0.0000000   0.0000000), wk =   0.0000000
        k(   11) = (   0.1250000   0.0000000   0.0000000), wk =   0.0500000
        k(   12) = (   0.1500000   0.0000000   0.0000000), wk =   0.0000000
        k(   13) = (   0.1500000   0.0000000   0.0000000), wk =   0.0500000
        k(   14) = (   0.1750000   0.0000000   0.0000000), wk =   0.0000000
        k(   15) = (   0.1750000   0.0000000   0.0000000), wk =   0.0500000
        k(   16) = (   0.2000000   0.0000000   0.0000000), wk =   0.0000000
        k(   17) = (   0.2000000   0.0000000   0.0000000), wk =   0.0500000
        k(   18) = (   0.2250000   0.0000000   0.0000000), wk =   0.0000000
        k(   19) = (   0.2250000   0.0000000   0.0000000), wk =   0.0500000
        k(   20) = (   0.2500000   0.0000000   0.0000000), wk =   0.0000000
        k(   21) = (   0.2500000   0.0000000   0.0000000), wk =   0.0500000
        k(   22) = (   0.2750000   0.0000000   0.0000000), wk =   0.0000000
        k(   23) = (   0.2750000   0.0000000   0.0000000), wk =   0.0500000
        k(   24) = (   0.3000000   0.0000000   0.0000000), wk =   0.0000000
        k(   25) = (   0.3000000   0.0000000   0.0000000), wk =   0.0500000
        k(   26) = (   0.3250000   0.0000000   0.0000000), wk =   0.0000000
        k(   27) = (   0.3250000   0.0000000   0.0000000), wk =   0.0500000
        k(   28) = (   0.3500000   0.0000000   0.0000000), wk =   0.0000000
        k(   29) = (   0.3500000   0.0000000   0.0000000), wk =   0.0500000
        k(   30) = (   0.3750000   0.0000000   0.0000000), wk =   0.0000000
        k(   31) = (   0.3750000   0.0000000   0.0000000), wk =   0.0500000
        k(   32) = (   0.4000000   0.0000000   0.0000000), wk =   0.0000000
        k(   33) = (   0.4000000   0.0000000   0.0000000), wk =   0.0500000
        k(   34) = (   0.4250000   0.0000000   0.0000000), wk =   0.0000000
        k(   35) = (   0.4250000   0.0000000   0.0000000), wk =   0.0500000
        k(   36) = (   0.4500000   0.0000000   0.0000000), wk =   0.0000000
        k(   37) = (   0.4500000   0.0000000   0.0000000), wk =   0.0500000
        k(   38) = (   0.4750000   0.0000000   0.0000000), wk =   0.0000000
        k(   39) = (   0.4750000   0.0000000   0.0000000), wk =   0.0500000
        k(   40) = (   0.5000000   0.0000000   0.0000000), wk =   0.0000000
        k(   41) = (  -0.5000000   0.0000000   0.0000000), wk =   0.0500000
        k(   42) = (  -0.4750000   0.0000000   0.0000000), wk =   0.0000000
        k(   43) = (  -0.0250000   0.0000000   0.0000000), wk =   0.0500000
        k(   44) = (   0.0000000   0.0000000   0.0000000), wk =   0.0000000
        k(   45) = (  -0.0500000   0.0000000   0.0000000), wk =   0.0500000
        k(   46) = (  -0.0250000   0.0000000   0.0000000), wk =   0.0000000
        k(   47) = (  -0.0750000   0.0000000   0.0000000), wk =   0.0500000
        k(   48) = (  -0.0500000   0.0000000   0.0000000), wk =   0.0000000
        k(   49) = (  -0.1000000   0.0000000   0.0000000), wk =   0.0500000
        k(   50) = (  -0.0750000   0.0000000   0.0000000), wk =   0.0000000
        k(   51) = (  -0.1250000   0.0000000   0.0000000), wk =   0.0500000
        k(   52) = (  -0.1000000   0.0000000   0.0000000), wk =   0.0000000
        k(   53) = (  -0.1500000   0.0000000   0.0000000), wk =   0.0500000
        k(   54) = (  -0.1250000   0.0000000   0.0000000), wk =   0.0000000
        k(   55) = (  -0.1750000   0.0000000   0.0000000), wk =   0.0500000
        k(   56) = (  -0.1500000   0.0000000   0.0000000), wk =   0.0000000
        k(   57) = (  -0.2000000   0.0000000   0.0000000), wk =   0.0500000
        k(   58) = (  -0.1750000   0.0000000   0.0000000), wk =   0.0000000
        k(   59) = (  -0.2250000   0.0000000   0.0000000), wk =   0.0500000
        k(   60) = (  -0.2000000   0.0000000   0.0000000), wk =   0.0000000
        k(   61) = (  -0.2500000   0.0000000   0.0000000), wk =   0.0500000
        k(   62) = (  -0.2250000   0.0000000   0.0000000), wk =   0.0000000
        k(   63) = (  -0.2750000   0.0000000   0.0000000), wk =   0.0500000
        k(   64) = (  -0.2500000   0.0000000   0.0000000), wk =   0.0000000
        k(   65) = (  -0.3000000   0.0000000   0.0000000), wk =   0.0500000
        k(   66) = (  -0.2750000   0.0000000   0.0000000), wk =   0.0000000
        k(   67) = (  -0.3250000   0.0000000   0.0000000), wk =   0.0500000
        k(   68) = (  -0.3000000   0.0000000   0.0000000), wk =   0.0000000
        k(   69) = (  -0.3500000   0.0000000   0.0000000), wk =   0.0500000
        k(   70) = (  -0.3250000   0.0000000   0.0000000), wk =   0.0000000
        k(   71) = (  -0.3750000   0.0000000   0.0000000), wk =   0.0500000
        k(   72) = (  -0.3500000   0.0000000   0.0000000), wk =   0.0000000
        k(   73) = (  -0.4000000   0.0000000   0.0000000), wk =   0.0500000
        k(   74) = (  -0.3750000   0.0000000   0.0000000), wk =   0.0000000
        k(   75) = (  -0.4250000   0.0000000   0.0000000), wk =   0.0500000
        k(   76) = (  -0.4000000   0.0000000   0.0000000), wk =   0.0000000
        k(   77) = (  -0.4500000   0.0000000   0.0000000), wk =   0.0500000
        k(   78) = (  -0.4250000   0.0000000   0.0000000), wk =   0.0000000
        k(   79) = (  -0.4750000   0.0000000   0.0000000), wk =   0.0500000
        k(   80) = (  -0.4500000   0.0000000   0.0000000), wk =   0.0000000

     Dense  grid:   233967 G-vectors     FFT dimensions: (  32, 125, 125)

     Smooth grid:    82581 G-vectors     FFT dimensions: (  24,  90,  90)

     Estimated max dynamical RAM per process >     186.17 MB

     Estimated total dynamical RAM >      10.18 GB

     Check: negative core charge=   -0.000002

     The potential is recalculated from file :
     ./_ph0/carbyne.q_2/carbyne.save/charge-density


     negative rho (up, down):  1.845E-04 0.000E+00
     Starting wfcs are    8 atomic +   48 random wfcs
     Checking if some PAW data can be deallocated... 

     Band Structure Calculation
     Davidson diagonalization with overlap

     ethr =  1.25E-10,  avg # of iterations = 18.2

     total cpu time spent up to now is       11.9 secs

     End of band structure calculation

          k = 0.0000 0.0000 0.0000 ( 10379 PWs)   bands (ev):

   -20.6781 -13.4758  -9.7334  -9.7334  -0.1569   1.3960   1.3960   1.4422
     1.6584   2.4009   3.0326   3.0326   3.5053   4.1740   4.5464   5.9451
     6.0337   6.0337   6.5193   6.7531   6.7531   7.2778   7.3528   7.3528
     7.5137   8.0011   8.0011   9.2628  10.5829  11.0964  11.8462  11.8462
    12.1595  13.7745  13.7745  14.0819  14.2534  14.4896  14.5509  14.5509
    14.5627  15.9394  15.9394  17.1841  17.3384  18.4566  18.4566  18.9391
    19.1951  19.1951  19.3800  20.1073  20.1073  21.1345  21.3378  21.7920

          k = 0.0250 0.0000 0.0000 ( 10395 PWs)   bands (ev):

   -20.6700 -13.4929  -9.7200  -9.7199  -0.1431   1.4102   1.4102   1.4564
     1.6721   2.4152   3.0468   3.0468   3.5190   4.1974   4.5606   5.9594
     6.0479   6.0479   6.5333   6.6734   6.6735   7.2921   7.3671   7.3671
     7.5280   8.0153   8.0153   9.2752  10.5972  11.1106  11.8604  11.8604
    12.1736  13.7887  13.7887  14.0962  14.2672  14.5039  14.5651  14.5651
    14.5770  15.9536  15.9536  17.1958  17.3527  18.5063  18.5063  18.9534
    19.2094  19.2094  19.3943  20.1214  20.1214  21.1488  21.1986  21.3482

          k = 0.0250 0.0000 0.0000 ( 10395 PWs)   bands (ev):

   -20.6700 -13.4929  -9.7200  -9.7199  -0.1431   1.4102   1.4102   1.4564
     1.6721   2.4152   3.0468   3.0468   3.5190   4.1974   4.5606   5.9594
     6.0479   6.0479   6.5333   6.6734   6.6735   7.2921   7.3671   7.3671
     7.5280   8.0153   8.0153   9.2752  10.5972  11.1106  11.8604  11.8604
    12.1736  13.7887  13.7887  14.0962  14.2672  14.5039  14.5651  14.5651
    14.5770  15.9536  15.9536  17.1958  17.3527  18.5063  18.5063  18.9534
    19.2094  19.2094  19.3943  20.1214  20.1214  21.1488  21.1986  21.3482

          k = 0.0500 0.0000 0.0000 ( 10355 PWs)   bands (ev):

   -20.6458 -13.5438  -9.6795  -9.6795  -0.1018   1.4528   1.4528   1.4993
     1.7132   2.4580   3.0895   3.0895   3.5601   4.2671   4.6035   6.0022
     6.0905   6.0905   6.4423   6.4423   6.5753   7.3350   7.4099   7.4099
     7.5708   8.0578   8.0578   9.3121  10.6400  11.1535  11.9032  11.9032
    12.2156  13.8313  13.8313  14.1390  14.3085  14.5467  14.6080  14.6080
    14.6199  15.9960  15.9960  17.2307  17.3955  18.6269  18.6269  18.9962
    19.2521  19.2521  19.4371  20.1634  20.1634  20.2479  21.1916  21.3778

          k = 0.0500 0.0000 0.0000 ( 10355 PWs)   bands (ev):

   -20.6458 -13.5438  -9.6795  -9.6795  -0.1018   1.4528   1.4528   1.4993
     1.7132   2.4580   3.0895   3.0895   3.5601   4.2671   4.6035   6.0022
     6.0905   6.0905   6.4423   6.4423   6.5753   7.3350   7.4099   7.4099
     7.5708   8.0578   8.0578   9.3121  10.6400  11.1535  11.9032  11.9032
    12.2156  13.8313  13.8313  14.1390  14.3085  14.5467  14.6080  14.6080
    14.6199  15.9960  15.9960  17.2307  17.3955  18.6269  18.6269  18.9962
    19.2521  19.2521  19.4371  20.1634  20.1634  20.2479  21.1916  21.3778

          k = 0.0750 0.0000 0.0000 ( 10335 PWs)   bands (ev):

   -20.6055 -13.6275  -9.6121  -9.6121  -0.0329   1.5239   1.5239   1.5707
     1.7817   2.5294   3.1607   3.1607   3.6286   4.3815   4.6749   6.0736
     6.0774   6.0774   6.1634   6.1634   6.6453   7.4064   7.4812   7.4812
     7.6422   8.1285   8.1285   9.3736  10.7114  11.2249  11.9745  11.9745
    12.2858  13.9023  13.9023  14.2104  14.3772  14.6181  14.6794  14.6794
    14.6913  16.0666  16.0666  17.2886  17.4669  18.7205  18.7205  19.0676
    19.2632  19.3233  19.3233  19.5085  20.2330  20.2330  20.9945  21.0373

          k = 0.0750 0.0000 0.0000 ( 10335 PWs)   bands (ev):

   -20.6055 -13.6275  -9.6121  -9.6121  -0.0329   1.5239   1.5239   1.5707
     1.7817   2.5294   3.1607   3.1607   3.6286   4.3815   4.6749   6.0736
     6.0774   6.0774   6.1634   6.1634   6.6453   7.4064   7.4812   7.4812
     7.6422   8.1285   8.1285   9.3736  10.7114  11.2249  11.9745  11.9745
    12.2858  13.9023  13.9023  14.2104  14.3772  14.6181  14.6794  14.6794
    14.6913  16.0666  16.0666  17.2886  17.4669  18.7205  18.7205  19.0676
    19.2632  19.3233  19.3233  19.5085  20.2330  20.2330  20.9945  21.0373

          k = 0.1000 0.0000 0.0000 ( 10355 PWs)   bands (ev):

   -20.5492 -13.7424  -9.5177  -9.5177   0.0635   1.6233   1.6233   1.6707
     1.8776   2.6294   3.2603   3.2603   3.7244   4.5381   4.7749   5.6095
     5.6096   6.1736   6.2618   6.2618   6.7433   7.5064   7.5811   7.5811
     7.7422   8.2275   8.2275   9.4594  10.8114  11.3248  12.0744  12.0744
    12.3839  14.0017  14.0017  14.3104  14.4733  14.7181  14.7794  14.7794
    14.7912  16.1654  16.1654  17.3689  17.5668  18.2862  18.6030  18.6030
    19.1675  19.4228  19.4228  19.6085  19.9519  20.0647  20.3295  20.3295

          k = 0.1000 0.0000 0.0000 ( 10355 PWs)   bands (ev):

   -20.5492 -13.7424  -9.5177  -9.5177   0.0635   1.6233   1.6233   1.6707
     1.8776   2.6294   3.2603   3.2603   3.7244   4.5381   4.7749   5.6095
     5.6096   6.1736   6.2618   6.2618   6.7433   7.5064   7.5811   7.5811
     7.7422   8.2275   8.2275   9.4594  10.8114  11.3248  12.0744  12.0744
    12.3839  14.0017  14.0017  14.3104  14.4733  14.7181  14.7794  14.7794
    14.7912  16.1654  16.1654  17.3689  17.5668  18.2862  18.6030  18.6030
    19.1675  19.4228  19.4228  19.6085  19.9519  20.0647  20.3295  20.3295

          k = 0.1250 0.0000 0.0000 ( 10359 PWs)   bands (ev):

   -20.4770 -13.8864  -9.3964  -9.3964   0.1874   1.7512   1.7512   1.7992
     2.0009   2.7579   3.3883   3.3883   3.8475   4.7333   4.9034   5.0608
     5.0609   6.3021   6.3898   6.3898   6.8693   7.6349   7.7096   7.7096
     7.8708   8.3547   8.3547   9.5693  10.9399  11.4533  12.2027  12.2027
    12.5100  14.1295  14.1295  14.4389  14.5967  14.8466  14.9079  14.9079
    14.9198  16.2922  16.2922  17.3280  17.4712  17.6953  18.1369  18.1369
    18.9379  19.1101  19.2961  19.5510  19.5510  19.7370  19.8959  20.0204

          k = 0.1250 0.0000 0.0000 ( 10359 PWs)   bands (ev):

   -20.4770 -13.8864  -9.3964  -9.3964   0.1874   1.7512   1.7512   1.7992
     2.0009   2.7579   3.3883   3.3883   3.8475   4.7333   4.9034   5.0608
     5.0609   6.3021   6.3898   6.3898   6.8693   7.6349   7.7096   7.7096
     7.8708   8.3547   8.3547   9.5693  10.9399  11.4533  12.2027  12.2027
    12.5100  14.1295  14.1295  14.4389  14.5967  14.8466  14.9079  14.9079
    14.9198  16.2922  16.2922  17.3280  17.4712  17.6953  18.1369  18.1369
    18.9379  19.1101  19.2961  19.5510  19.5510  19.7370  19.8959  20.0204

          k = 0.1500 0.0000 0.0000 ( 10351 PWs)   bands (ev):

   -20.3891 -14.0568  -9.2484  -9.2483   0.3386   1.9074   1.9074   1.9563
     2.1513   2.9150   3.5446   3.5446   3.9979   4.4554   4.4554   4.9627
     5.0605   6.4592   6.5463   6.5463   7.0231   7.7920   7.8665   7.8665
     8.0279   8.5101   8.5101   9.7029  11.0970  11.6104  12.3596  12.3596
    12.6640  14.2856  14.2856  14.5960  14.7470  15.0037  15.0650  15.0650
    15.0769  16.3944  16.4472  16.4472  17.4222  17.4222  17.5931  17.8524
    17.9524  18.1801  18.9105  19.2218  19.2218  19.4531  19.7079  19.7079

          k = 0.1500 0.0000 0.0000 ( 10351 PWs)   bands (ev):

   -20.3891 -14.0568  -9.2484  -9.2483   0.3386   1.9074   1.9074   1.9563
     2.1513   2.9150   3.5446   3.5446   3.9979   4.4554   4.4554   4.9627
     5.0605   6.4592   6.5463   6.5463   7.0231   7.7920   7.8665   7.8665
     8.0279   8.5101   8.5101   9.7029  11.0970  11.6104  12.3596  12.3596
    12.6640  14.2856  14.2856  14.5960  14.7470  15.0037  15.0650  15.0650
    15.0769  16.3944  16.4472  16.4472  17.4222  17.4222  17.5931  17.8524
    17.9524  18.1801  18.9105  19.2218  19.2218  19.4531  19.7079  19.7079

          k = 0.1750 0.0000 0.0000 ( 10375 PWs)   bands (ev):

   -20.2858 -14.2509  -9.0735  -9.0735   0.5171   2.0919   2.0919   2.1420
     2.3289   3.1007   3.7248   3.7248   3.8162   3.8162   4.1755   5.2204
     5.2461   6.6449   6.7313   6.7313   7.2047   7.9777   8.0520   8.0520
     8.2135   8.6938   8.6938   9.8597  11.2826  11.7960  12.5450  12.5450
    12.8459  14.4700  14.4700  14.7816  14.9241  15.1894  15.2507  15.2507
    15.2626  15.4876  16.6056  16.6056  16.6306  16.6306  16.9956  17.2772
    17.7343  17.9537  18.0380  18.3612  18.3612  19.0894  19.6387  19.8933

          k = 0.1750 0.0000 0.0000 ( 10375 PWs)   bands (ev):

   -20.2858 -14.2509  -9.0735  -9.0735   0.5171   2.0919   2.0919   2.1420
     2.3289   3.1007   3.7248   3.7248   3.8162   3.8162   4.1755   5.2204
     5.2461   6.6449   6.7313   6.7313   7.2047   7.9777   8.0520   8.0520
     8.2135   8.6938   8.6938   9.8597  11.2826  11.7960  12.5450  12.5450
    12.8459  14.4700  14.4700  14.7816  14.9241  15.1894  15.2507  15.2507
    15.2626  15.4876  16.6056  16.6056  16.6306  16.6306  16.9956  17.2772
    17.7343  17.9537  18.0380  18.3612  18.3612  19.0894  19.6387  19.8933

          k = 0.2000 0.0000 0.0000 ( 10395 PWs)   bands (ev):

   -20.1672 -14.4658  -8.8719  -8.8719   0.7228   2.3044   2.3044   2.3562
     2.5336   3.1429   3.1429   3.3149   3.9442   3.9442   4.3801   5.4603
     5.4996   6.8591   6.9447   6.9447   7.4141   8.1919   8.2660   8.2660
     8.4278   8.9056   8.9056  10.0390  11.4968  12.0101  12.7589  12.7589
    13.0554  14.6097  14.6828  14.6828  14.9958  15.1277  15.4036  15.4649
    15.4649  15.4768  15.7605  15.7605  16.0672  16.4050  16.8411  16.8411
    17.0254  17.4880  17.4880  17.8903  18.2142  18.2521  19.1693  19.8530

          k = 0.2000 0.0000 0.0000 ( 10395 PWs)   bands (ev):

   -20.1672 -14.4658  -8.8719  -8.8719   0.7228   2.3044   2.3044   2.3562
     2.5336   3.1429   3.1429   3.3149   3.9442   3.9442   4.3801   5.4603
     5.4996   6.8591   6.9447   6.9447   7.4141   8.1919   8.2660   8.2660
     8.4278   8.9056   8.9056  10.0390  11.4968  12.0101  12.7589  12.7589
    13.0554  14.6097  14.6828  14.6828  14.9958  15.1277  15.4036  15.4649
    15.4649  15.4768  15.7605  15.7605  16.0672  16.4050  16.8411  16.8411
    17.0254  17.4880  17.4880  17.8903  18.2142  18.2521  19.1693  19.8530

          k = 0.2250 0.0000 0.0000 ( 10403 PWs)   bands (ev):

   -20.0337 -14.6986  -8.6437  -8.6437   0.9554   2.4518   2.4518   2.5567
     2.5567   2.5990   2.7651   3.5577   4.1858   4.1858   4.6117   5.7031
     5.7913   7.1019   7.1865   7.1865   7.6510   8.4347   8.5085   8.5085
     8.6706   9.1455   9.1455  10.2400  11.7395  12.2529  13.0013  13.0013
    13.2924  13.7632  14.9141  14.9141  14.9244  14.9244  15.1674  15.2386
    15.3563  15.5655  15.6464  15.7077  15.7077  15.7196  16.1257  16.6235
    16.6235  17.0801  17.0801  17.3698  18.0611  18.2697  18.4948  19.5253

          k = 0.2250 0.0000 0.0000 ( 10403 PWs)   bands (ev):

   -20.0337 -14.6986  -8.6437  -8.6437   0.9554   2.4518   2.4518   2.5567
     2.5567   2.5990   2.7651   3.5577   4.1858   4.1858   4.6117   5.7031
     5.7913   7.1019   7.1865   7.1865   7.6510   8.4347   8.5085   8.5085
     8.6706   9.1455   9.1455  10.2400  11.7395  12.2529  13.0013  13.0013
    13.2924  13.7632  14.9141  14.9141  14.9244  14.9244  15.1674  15.2386
    15.3563  15.5655  15.6464  15.7077  15.7077  15.7196  16.1257  16.6235
    16.6235  17.0801  17.0801  17.3698  18.0611  18.2697  18.4948  19.5253

          k = 0.2500 0.0000 0.0000 ( 10359 PWs)   bands (ev):

   -19.8856 -14.9462  -8.3890  -8.3890   1.2148   1.7758   1.7758   2.8177
     2.8177   2.8704   3.0233   3.8291   4.4561   4.4561   4.8701   5.9745
     6.0844   7.3732   7.4568   7.4568   7.9152   8.7061   8.7796   8.7796
     8.9420   9.4137   9.4137  10.4613  12.0109  12.5241  12.9501  13.2722
    13.2722  13.5569  14.0813  14.0813  14.2962  14.7598  15.1933  15.1933
    15.2546  15.5099  15.6106  15.7769  15.7769  15.9178  15.9790  15.9790
    15.9910  16.5637  17.3469  17.3469  17.3987  18.2369  18.7175  18.7175

          k = 0.2500 0.0000 0.0000 ( 10359 PWs)   bands (ev):

   -19.8856 -14.9462  -8.3890  -8.3890   1.2148   1.7758   1.7758   2.8177
     2.8177   2.8704   3.0233   3.8291   4.4561   4.4561   4.8701   5.9745
     6.0844   7.3732   7.4568   7.4568   7.9152   8.7061   8.7796   8.7796
     8.9420   9.4137   9.4137  10.4613  12.0109  12.5241  12.9501  13.2722
    13.2722  13.5569  14.0813  14.0813  14.2962  14.7598  15.1933  15.1933
    15.2546  15.5099  15.6106  15.7769  15.7769  15.9178  15.9790  15.9790
    15.9910  16.5637  17.3469  17.3469  17.3987  18.2369  18.7175  18.7175

          k = 0.2750 0.0000 0.0000 ( 10367 PWs)   bands (ev):

   -19.7233 -15.2060  -8.1079  -8.1079   1.0935   1.0935   1.5007   3.1155
     3.1155   3.1703   3.3080   4.1290   4.7548   4.7548   5.1549   6.2744
     6.3639   7.6731   7.7555   7.7555   8.2065   9.0060   9.0792   9.0792
     9.2419   9.7099   9.7099  10.7013  12.1741  12.3107  12.8239  13.2667
    13.2667  13.4536  13.5716  13.5716  13.8474  13.9936  14.4120  14.9524
    14.9524  15.4909  15.4909  15.7942  15.8098  15.8912  16.2177  16.2789
    16.2789  16.2909  16.5563  17.6416  17.6416  17.9139  17.9139  17.9546

          k = 0.2750 0.0000 0.0000 ( 10367 PWs)   bands (ev):

   -19.7233 -15.2060  -8.1079  -8.1079   1.0935   1.0935   1.5007   3.1155
     3.1155   3.1703   3.3080   4.1290   4.7548   4.7548   5.1549   6.2744
     6.3639   7.6731   7.7555   7.7555   8.2065   9.0060   9.0792   9.0792
     9.2419   9.7099   9.7099  10.7013  12.1741  12.3107  12.8239  13.2667
    13.2667  13.4536  13.5716  13.5716  13.8474  13.9936  14.4120  14.9524
    14.9524  15.4909  15.4909  15.7942  15.8098  15.8912  16.2177  16.2789
    16.2789  16.2909  16.5563  17.6416  17.6416  17.9139  17.9139  17.9546

          k = 0.3000 0.0000 0.0000 ( 10355 PWs)   bands (ev):

   -19.5472 -15.4752  -7.8006  -7.8006   0.4180   0.4180   1.8126   3.4419
     3.4419   3.4988   3.6187   4.4575   5.0820   5.0820   5.4660   6.6028
     6.6102   8.0015   8.0826   8.0826   8.5244   9.3345   9.4073   9.4073
     9.5704  10.0342  10.0342  10.9563  11.4400  12.4744  12.4744  12.6391
    12.6395  13.1523  13.2678  13.5979  13.8994  13.8994  14.1524  14.1524
    14.1661  15.0786  15.7424  15.8168  15.8168  16.1382  16.1857  16.5462
    16.6074  16.6074  16.6194  17.1259  17.1259  17.1408  17.8094  17.9642

          k = 0.3000 0.0000 0.0000 ( 10355 PWs)   bands (ev):

   -19.5472 -15.4752  -7.8006  -7.8006   0.4180   0.4180   1.8126   3.4419
     3.4419   3.4988   3.6187   4.4575   5.0820   5.0820   5.4660   6.6028
     6.6102   8.0015   8.0826   8.0826   8.5244   9.3345   9.4073   9.4073
     9.5704  10.0342  10.0342  10.9563  11.4400  12.4744  12.4744  12.6391
    12.6395  13.1523  13.2678  13.5979  13.8994  13.8994  14.1524  14.1524
    14.1661  15.0786  15.7424  15.8168  15.8168  16.1382  16.1857  16.5462
    16.6074  16.6074  16.6194  17.1259  17.1259  17.1408  17.8094  17.9642

          k = 0.3250 0.0000 0.0000 ( 10355 PWs)   bands (ev):

   -19.3580 -15.7514  -7.4673  -7.4673  -0.2467  -0.2467   2.1502   3.7967
     3.7967   3.8559   3.9551   4.8145   5.4376   5.4376   5.8027   6.7972
     6.9598   8.3585   8.4380   8.4380   8.8683   9.6915   9.7639   9.7639
     9.9274  10.3865  10.3865  10.7434  11.2320  11.7062  11.7062  11.8540
    12.5904  12.8124  12.9962  13.3780  13.3780  13.5092  14.2558  14.2558
    14.4127  14.5135  14.9570  16.1706  16.1706  16.3552  16.3595  16.3595
    16.4955  16.4989  16.9032  16.9644  16.9644  16.9765  17.0496  17.6895

          k = 0.3250 0.0000 0.0000 ( 10355 PWs)   bands (ev):

   -19.3580 -15.7514  -7.4673  -7.4673  -0.2467  -0.2467   2.1502   3.7967
     3.7967   3.8559   3.9551   4.8145   5.4376   5.4376   5.8027   6.7972
     6.9598   8.3585   8.4380   8.4380   8.8683   9.6915   9.7639   9.7639
     9.9274  10.3865  10.3865  10.7434  11.2320  11.7062  11.7062  11.8540
    12.5904  12.8124  12.9962  13.3780  13.3780  13.5092  14.2558  14.2558
    14.4127  14.5135  14.9570  16.1706  16.1706  16.3552  16.3595  16.3595
    16.4955  16.4989  16.9032  16.9644  16.9644  16.9765  17.0496  17.6895

          k = 0.3500 0.0000 0.0000 ( 10323 PWs)   bands (ev):

   -19.1560 -16.0321  -7.1082  -7.1082  -0.8974  -0.8974   2.5127   4.1798
     4.1798   4.2415   4.3167   5.2002   5.8216   5.8216   6.1641   6.8934
     7.3454   8.7441   8.8218   8.8218   9.2369  10.0771  10.1046  10.1490
    10.1490  10.3131  10.7662  10.7662  10.9639  10.9639  11.0970  11.5047
    11.9680  12.0555  12.6302  12.6302  13.3817  13.8256  13.8945  14.2004
    14.6406  14.6406  14.8779  15.5986  15.6166  15.6166  16.3215  16.5529
    16.5529  16.8217  16.8808  16.9325  16.9823  16.9823  17.1686  17.2888

          k = 0.3500 0.0000 0.0000 ( 10323 PWs)   bands (ev):

   -19.1560 -16.0321  -7.1082  -7.1082  -0.8974  -0.8974   2.5127   4.1798
     4.1798   4.2415   4.3167   5.2002   5.8216   5.8216   6.1641   6.8934
     7.3454   8.7441   8.8218   8.8218   9.2369  10.0771  10.1046  10.1490
    10.1490  10.3131  10.7662  10.7662  10.9639  10.9639  11.0970  11.5047
    11.9680  12.0555  12.6302  12.6302  13.3817  13.8256  13.8945  14.2004
    14.6406  14.6406  14.8779  15.5986  15.6166  15.6166  16.3215  16.5529
    16.5529  16.8217  16.8808  16.9325  16.9823  16.9823  17.1686  17.2888

          k = 0.3750 0.0000 0.0000 ( 10323 PWs)   bands (ev):

   -18.9421 -16.3153  -6.7237  -6.7237  -1.5317  -1.5317   2.8992   4.5912
     4.5912   4.6557   4.7025   5.6143   6.2339   6.2339   6.5463   6.8710
     7.7596   9.1582   9.2340   9.2340   9.5090   9.6353  10.2465  10.2465
    10.3686  10.4913  10.5626  10.5626  10.7273  11.1751  11.1751  11.3271
    11.3717  11.8051  11.9095  11.9095  13.3265  13.4718  13.7957  14.3089
    14.8704  14.8995  14.8995  15.0539  15.0539  15.2663  15.6334  16.2041
    16.2588  16.2588  16.4403  16.7570  16.7570  16.9634  16.9634  17.1338

          k = 0.3750 0.0000 0.0000 ( 10323 PWs)   bands (ev):

   -18.9421 -16.3153  -6.7237  -6.7237  -1.5317  -1.5317   2.8992   4.5912
     4.5912   4.6557   4.7025   5.6143   6.2339   6.2339   6.5463   6.8710
     7.7596   9.1582   9.2340   9.2340   9.5090   9.6353  10.2465  10.2465
    10.3686  10.4913  10.5626  10.5626  10.7273  11.1751  11.1751  11.3271
    11.3717  11.8051  11.9095  11.9095  13.3265  13.4718  13.7957  14.3089
    14.8704  14.8995  14.8995  15.0539  15.0539  15.2663  15.6334  16.2041
    16.2588  16.2588  16.4403  16.7570  16.7570  16.9634  16.9634  17.1338

          k = 0.4000 0.0000 0.0000 ( 10291 PWs)   bands (ev):

   -18.7169 -16.5988  -6.3141  -6.3141  -2.1475  -2.1475   3.3083   5.0308
     5.0308   5.0984   5.1116   6.0571   6.6746   6.6746   6.6862   6.9761
     8.2023   8.9678   9.5561   9.5561   9.6009   9.6688   9.6750   9.6750
    10.0434  10.6274  10.8405  10.9341  11.0046  11.0046  11.1700  11.2159
    11.2159  11.6113  11.6113  12.0721  12.7721  12.9382  14.1696  14.2086
    14.2087  14.2395  14.7514  14.9850  15.4954  15.4954  15.5044  15.5628
    15.5628  15.6754  15.7404  16.0809  16.0809  17.4014  17.4014  17.4058

          k = 0.4000 0.0000 0.0000 ( 10291 PWs)   bands (ev):

   -18.7169 -16.5988  -6.3141  -6.3141  -2.1475  -2.1475   3.3083   5.0308
     5.0308   5.0984   5.1116   6.0571   6.6746   6.6746   6.6862   6.9761
     8.2023   8.9678   9.5561   9.5561   9.6009   9.6688   9.6750   9.6750
    10.0434  10.6274  10.8405  10.9341  11.0046  11.0046  11.1700  11.2159
    11.2159  11.6113  11.6113  12.0721  12.7721  12.9382  14.1696  14.2086
    14.2087  14.2395  14.7514  14.9850  15.4954  15.4954  15.5044  15.5628
    15.5628  15.6754  15.7404  16.0809  16.0809  17.4014  17.4014  17.4058

          k = 0.4250 0.0000 0.0000 ( 10287 PWs)   bands (ev):

   -18.4814 -16.8807  -5.8804  -5.8804  -2.7429  -2.7429   3.7381   5.4986
     5.4986   5.5419   5.5697   6.4018   6.5284   7.1436   7.1436   7.4021
     8.4508   8.6734   8.8939   8.8939   8.9976   9.9556  10.0727  10.1432
    10.1432  10.3160  10.4842  10.5502  10.5502  11.4054  11.4752  11.4752
    11.6413  12.0748  12.0748  12.1010  12.2977  12.6833  13.4995  13.5448
    13.5448  14.3945  14.7097  14.8330  14.8941  14.8941  15.0691  15.2226
    15.4293  15.4293  15.9658  15.9658  16.0893  17.5858  17.8673  17.8673

          k = 0.4250 0.0000 0.0000 ( 10287 PWs)   bands (ev):

   -18.4814 -16.8807  -5.8804  -5.8804  -2.7429  -2.7429   3.7381   5.4986
     5.4986   5.5419   5.5697   6.4018   6.5284   7.1436   7.1436   7.4021
     8.4508   8.6734   8.8939   8.8939   8.9976   9.9556  10.0727  10.1432
    10.1432  10.3160  10.4842  10.5502  10.5502  11.4054  11.4752  11.4752
    11.6413  12.0748  12.0748  12.1010  12.2977  12.6833  13.4995  13.5448
    13.5448  14.3945  14.7097  14.8330  14.8941  14.8941  15.0691  15.2226
    15.4293  15.4293  15.9658  15.9658  16.0893  17.5858  17.8673  17.8673

          k = 0.4500 0.0000 0.0000 ( 10271 PWs)   bands (ev):

   -18.2372 -17.1587  -5.4240  -5.4240  -3.3152  -3.3152   4.1855   5.9593
     5.9946   5.9946   6.0530   6.0696   7.0282   7.6409   7.6409   7.8444
     7.9566   8.2587   8.2587   8.3548   9.1734   9.3134   9.8178   9.9123
     9.9123  10.5720  10.6401  10.6401  10.9149  11.4583  11.9053  11.9741
    11.9741  12.1412  12.2973  12.5659  12.5659  12.6913  12.8569  12.9085
    12.9085  13.8817  14.1904  14.2537  14.2537  14.4264  14.8035  14.8036
    15.2094  15.7222  16.4643  16.4643  16.4882  17.4940  17.5824  17.9423

          k = 0.4500 0.0000 0.0000 ( 10271 PWs)   bands (ev):

   -18.2372 -17.1587  -5.4240  -5.4240  -3.3152  -3.3152   4.1855   5.9593
     5.9946   5.9946   6.0530   6.0696   7.0282   7.6409   7.6409   7.8444
     7.9566   8.2587   8.2587   8.3548   9.1734   9.3134   9.8178   9.9123
     9.9123  10.5720  10.6401  10.6401  10.9149  11.4583  11.9053  11.9741
    11.9741  12.1412  12.2973  12.5659  12.5659  12.6913  12.8569  12.9085
    12.9085  13.8817  14.1904  14.2537  14.2537  14.4264  14.8035  14.8036
    15.2094  15.7222  16.4643  16.4643  16.4882  17.4940  17.5824  17.9423

          k = 0.4750 0.0000 0.0000 ( 10246 PWs)   bands (ev):

   -17.9883 -17.4281  -4.9518  -4.9518  -3.8573  -3.8573   4.6453   5.5780
     6.4668   6.5186   6.5186   6.5981   7.4442   7.5566   7.6508   7.6508
     7.7407   8.1667   8.1667   8.3294   8.6993   9.3024   9.3024   9.3159
     9.7017  10.8444  11.1004  11.1651  11.1651  11.3418  12.0849  12.2429
    12.2994  12.2994  12.4337  12.5015  12.5015  12.6697  12.8696  13.0848
    13.0848  13.4847  13.5763  13.6414  13.6414  13.8123  14.2040  14.2040
    15.7377  16.2503  16.8197  16.8801  16.9911  16.9911  17.3928  17.4126

          k = 0.4750 0.0000 0.0000 ( 10246 PWs)   bands (ev):

   -17.9883 -17.4281  -4.9518  -4.9518  -3.8573  -3.8573   4.6453   5.5780
     6.4668   6.5186   6.5186   6.5981   7.4442   7.5566   7.6508   7.6508
     7.7407   8.1667   8.1667   8.3294   8.6993   9.3024   9.3024   9.3159
     9.7017  10.8444  11.1004  11.1651  11.1651  11.3418  12.0849  12.2429
    12.2994  12.2994  12.4337  12.5015  12.5015  12.6697  12.8696  13.0848
    13.0848  13.4847  13.5763  13.6414  13.6414  13.8123  14.2040  14.2040
    15.7377  16.2503  16.8197  16.8801  16.9911  16.9911  17.3928  17.4126

          k = 0.5000 0.0000 0.0000 ( 10242 PWs)   bands (ev):

   -17.7968 -17.6264  -4.5843  -4.5843  -4.2481  -4.2480   5.0674   5.1622
     6.9144   6.9863   7.0570   7.0570   7.0845   7.0845   7.1509   7.1592
     8.1054   8.1220   8.7126   8.7126   8.7283   8.7283   8.7816   8.8530
    10.2468  10.2707  11.6473  11.6549  11.6674  11.7092  11.7092  11.7273
    11.7273  11.8485  12.9886  12.9928  12.9935  13.0520  13.0520  13.0624
    13.0624  13.2238  13.2296  13.2901  13.6171  13.6171  13.6448  13.6448
    16.2840  16.3053  16.7908  16.8237  16.9739  17.3110  17.5400  17.5400

          k =-0.5000 0.0000 0.0000 ( 10242 PWs)   bands (ev):

   -17.7968 -17.6264  -4.5843  -4.5843  -4.2481  -4.2480   5.0674   5.1622
     6.9144   6.9863   7.0570   7.0570   7.0845   7.0845   7.1509   7.1592
     8.1054   8.1220   8.7126   8.7126   8.7283   8.7283   8.7816   8.8530
    10.2468  10.2707  11.6473  11.6549  11.6674  11.7092  11.7092  11.7273
    11.7273  11.8485  12.9886  12.9928  12.9935  13.0520  13.0520  13.0624
    13.0624  13.2238  13.2296  13.2901  13.6171  13.6171  13.6448  13.6448
    16.2840  16.3053  16.7908  16.8237  16.9739  17.3110  17.5400  17.5400

          k =-0.4750 0.0000 0.0000 ( 10246 PWs)   bands (ev):

   -17.9883 -17.4281  -4.9518  -4.9518  -3.8573  -3.8573   4.6453   5.5780
     6.4668   6.5186   6.5186   6.5981   7.4442   7.5566   7.6508   7.6508
     7.7407   8.1667   8.1667   8.3294   8.6993   9.3024   9.3024   9.3159
     9.7017  10.8444  11.1004  11.1651  11.1651  11.3418  12.0849  12.2429
    12.2994  12.2994  12.4337  12.5015  12.5015  12.6697  12.8696  13.0848
    13.0848  13.4847  13.5763  13.6414  13.6414  13.8123  14.2040  14.2040
    15.7377  16.2503  16.8197  16.8801  16.9911  16.9911  17.3928  17.4126

          k =-0.0250 0.0000 0.0000 ( 10395 PWs)   bands (ev):

   -20.6700 -13.4929  -9.7200  -9.7199  -0.1431   1.4102   1.4102   1.4564
     1.6721   2.4152   3.0468   3.0468   3.5190   4.1974   4.5606   5.9594
     6.0479   6.0479   6.5333   6.6734   6.6735   7.2921   7.3671   7.3671
     7.5280   8.0153   8.0153   9.2752  10.5972  11.1106  11.8604  11.8604
    12.1736  13.7887  13.7887  14.0962  14.2672  14.5039  14.5651  14.5651
    14.5770  15.9536  15.9536  17.1958  17.3527  18.5063  18.5063  18.9534
    19.2094  19.2094  19.3943  20.1214  20.1214  21.1488  21.1986  21.3482

          k = 0.0000 0.0000 0.0000 ( 10379 PWs)   bands (ev):

   -20.6781 -13.4758  -9.7334  -9.7334  -0.1569   1.3960   1.3960   1.4422
     1.6584   2.4009   3.0326   3.0326   3.5053   4.1740   4.5464   5.9451
     6.0337   6.0337   6.5193   6.7531   6.7531   7.2778   7.3528   7.3528
     7.5137   8.0011   8.0011   9.2628  10.5829  11.0964  11.8462  11.8462
    12.1595  13.7745  13.7745  14.0819  14.2534  14.4896  14.5509  14.5509
    14.5627  15.9394  15.9394  17.1841  17.3384  18.4566  18.4566  18.9391
    19.1951  19.1951  19.3800  20.1073  20.1073  21.1345  21.3378  21.7920

          k =-0.0500 0.0000 0.0000 ( 10355 PWs)   bands (ev):

   -20.6458 -13.5438  -9.6795  -9.6795  -0.1018   1.4528   1.4528   1.4993
     1.7132   2.4580   3.0895   3.0895   3.5601   4.2671   4.6035   6.0022
     6.0905   6.0905   6.4423   6.4423   6.5753   7.3350   7.4099   7.4099
     7.5708   8.0578   8.0578   9.3121  10.6400  11.1535  11.9032  11.9032
    12.2156  13.8313  13.8313  14.1390  14.3085  14.5467  14.6080  14.6080
    14.6199  15.9960  15.9960  17.2307  17.3955  18.6269  18.6269  18.9962
    19.2521  19.2521  19.4371  20.1634  20.1634  20.2479  21.1916  21.3778

          k =-0.0250 0.0000 0.0000 ( 10395 PWs)   bands (ev):

   -20.6700 -13.4929  -9.7200  -9.7199  -0.1431   1.4102   1.4102   1.4564
     1.6721   2.4152   3.0468   3.0468   3.5190   4.1974   4.5606   5.9594
     6.0479   6.0479   6.5333   6.6734   6.6735   7.2921   7.3671   7.3671
     7.5280   8.0153   8.0153   9.2752  10.5972  11.1106  11.8604  11.8604
    12.1736  13.7887  13.7887  14.0962  14.2672  14.5039  14.5651  14.5651
    14.5770  15.9536  15.9536  17.1958  17.3527  18.5063  18.5063  18.9534
    19.2094  19.2094  19.3943  20.1214  20.1214  21.1488  21.1986  21.3482

          k =-0.0750 0.0000 0.0000 ( 10335 PWs)   bands (ev):

   -20.6055 -13.6275  -9.6121  -9.6121  -0.0329   1.5239   1.5239   1.5707
     1.7817   2.5294   3.1607   3.1607   3.6286   4.3815   4.6749   6.0736
     6.0774   6.0774   6.1634   6.1634   6.6453   7.4064   7.4812   7.4812
     7.6422   8.1285   8.1285   9.3736  10.7114  11.2249  11.9745  11.9745
    12.2858  13.9023  13.9023  14.2104  14.3772  14.6181  14.6794  14.6794
    14.6913  16.0666  16.0666  17.2886  17.4669  18.7205  18.7205  19.0676
    19.2632  19.3233  19.3233  19.5085  20.2330  20.2330  20.9945  21.0373

          k =-0.0500 0.0000 0.0000 ( 10355 PWs)   bands (ev):

   -20.6458 -13.5438  -9.6795  -9.6795  -0.1018   1.4528   1.4528   1.4993
     1.7132   2.4580   3.0895   3.0895   3.5601   4.2671   4.6035   6.0022
     6.0905   6.0905   6.4423   6.4423   6.5753   7.3350   7.4099   7.4099
     7.5708   8.0578   8.0578   9.3121  10.6400  11.1535  11.9032  11.9032
    12.2156  13.8313  13.8313  14.1390  14.3085  14.5467  14.6080  14.6080
    14.6199  15.9960  15.9960  17.2307  17.3955  18.6269  18.6269  18.9962
    19.2521  19.2521  19.4371  20.1634  20.1634  20.2479  21.1916  21.3778

          k =-0.1000 0.0000 0.0000 ( 10355 PWs)   bands (ev):

   -20.5492 -13.7424  -9.5177  -9.5177   0.0635   1.6233   1.6233   1.6707
     1.8776   2.6294   3.2603   3.2603   3.7244   4.5381   4.7749   5.6095
     5.6096   6.1736   6.2618   6.2618   6.7433   7.5064   7.5811   7.5811
     7.7422   8.2275   8.2275   9.4594  10.8114  11.3248  12.0744  12.0744
    12.3839  14.0017  14.0017  14.3104  14.4733  14.7181  14.7794  14.7794
    14.7912  16.1654  16.1654  17.3689  17.5668  18.2862  18.6030  18.6030
    19.1675  19.4228  19.4228  19.6085  19.9519  20.0647  20.3295  20.3295

          k =-0.0750 0.0000 0.0000 ( 10335 PWs)   bands (ev):

   -20.6055 -13.6275  -9.6121  -9.6121  -0.0329   1.5239   1.5239   1.5707
     1.7817   2.5294   3.1607   3.1607   3.6286   4.3815   4.6749   6.0736
     6.0774   6.0774   6.1634   6.1634   6.6453   7.4064   7.4812   7.4812
     7.6422   8.1285   8.1285   9.3736  10.7114  11.2249  11.9745  11.9745
    12.2858  13.9023  13.9023  14.2104  14.3772  14.6181  14.6794  14.6794
    14.6913  16.0666  16.0666  17.2886  17.4669  18.7205  18.7205  19.0676
    19.2632  19.3233  19.3233  19.5085  20.2330  20.2330  20.9945  21.0373

          k =-0.1250 0.0000 0.0000 ( 10359 PWs)   bands (ev):

   -20.4770 -13.8864  -9.3964  -9.3964   0.1874   1.7512   1.7512   1.7992
     2.0009   2.7579   3.3883   3.3883   3.8475   4.7333   4.9034   5.0608
     5.0609   6.3021   6.3898   6.3898   6.8693   7.6349   7.7096   7.7096
     7.8708   8.3547   8.3547   9.5693  10.9399  11.4533  12.2027  12.2027
    12.5100  14.1295  14.1295  14.4389  14.5967  14.8466  14.9079  14.9079
    14.9198  16.2922  16.2922  17.3280  17.4712  17.6953  18.1369  18.1369
    18.9379  19.1101  19.2961  19.5510  19.5510  19.7370  19.8959  20.0204

          k =-0.1000 0.0000 0.0000 ( 10355 PWs)   bands (ev):

   -20.5492 -13.7424  -9.5177  -9.5177   0.0635   1.6233   1.6233   1.6707
     1.8776   2.6294   3.2603   3.2603   3.7244   4.5381   4.7749   5.6095
     5.6096   6.1736   6.2618   6.2618   6.7433   7.5064   7.5811   7.5811
     7.7422   8.2275   8.2275   9.4594  10.8114  11.3248  12.0744  12.0744
    12.3839  14.0017  14.0017  14.3104  14.4733  14.7181  14.7794  14.7794
    14.7912  16.1654  16.1654  17.3689  17.5668  18.2862  18.6030  18.6030
    19.1675  19.4228  19.4228  19.6085  19.9519  20.0647  20.3295  20.3295

          k =-0.1500 0.0000 0.0000 ( 10351 PWs)   bands (ev):

   -20.3891 -14.0568  -9.2484  -9.2483   0.3386   1.9074   1.9074   1.9563
     2.1513   2.9150   3.5446   3.5446   3.9979   4.4554   4.4554   4.9627
     5.0605   6.4592   6.5463   6.5463   7.0231   7.7920   7.8665   7.8665
     8.0279   8.5101   8.5101   9.7029  11.0970  11.6104  12.3596  12.3596
    12.6640  14.2856  14.2856  14.5960  14.7470  15.0037  15.0650  15.0650
    15.0769  16.3944  16.4472  16.4472  17.4222  17.4222  17.5931  17.8524
    17.9524  18.1801  18.9105  19.2218  19.2218  19.4531  19.7079  19.7079

          k =-0.1250 0.0000 0.0000 ( 10359 PWs)   bands (ev):

   -20.4770 -13.8864  -9.3964  -9.3964   0.1874   1.7512   1.7512   1.7992
     2.0009   2.7579   3.3883   3.3883   3.8475   4.7333   4.9034   5.0608
     5.0609   6.3021   6.3898   6.3898   6.8693   7.6349   7.7096   7.7096
     7.8708   8.3547   8.3547   9.5693  10.9399  11.4533  12.2027  12.2027
    12.5100  14.1295  14.1295  14.4389  14.5967  14.8466  14.9079  14.9079
    14.9198  16.2922  16.2922  17.3280  17.4712  17.6953  18.1369  18.1369
    18.9379  19.1101  19.2961  19.5510  19.5510  19.7370  19.8959  20.0204

          k =-0.1750 0.0000 0.0000 ( 10375 PWs)   bands (ev):

   -20.2858 -14.2509  -9.0735  -9.0735   0.5171   2.0919   2.0919   2.1420
     2.3289   3.1007   3.7248   3.7248   3.8162   3.8162   4.1755   5.2204
     5.2461   6.6449   6.7313   6.7313   7.2047   7.9777   8.0520   8.0520
     8.2135   8.6938   8.6938   9.8597  11.2826  11.7960  12.5450  12.5450
    12.8459  14.4700  14.4700  14.7816  14.9241  15.1894  15.2507  15.2507
    15.2626  15.4876  16.6056  16.6056  16.6306  16.6306  16.9956  17.2772
    17.7343  17.9537  18.0380  18.3612  18.3612  19.0894  19.6387  19.8933

          k =-0.1500 0.0000 0.0000 ( 10351 PWs)   bands (ev):

   -20.3891 -14.0568  -9.2484  -9.2483   0.3386   1.9074   1.9074   1.9563
     2.1513   2.9150   3.5446   3.5446   3.9979   4.4554   4.4554   4.9627
     5.0605   6.4592   6.5463   6.5463   7.0231   7.7920   7.8665   7.8665
     8.0279   8.5101   8.5101   9.7029  11.0970  11.6104  12.3596  12.3596
    12.6640  14.2856  14.2856  14.5960  14.7470  15.0037  15.0650  15.0650
    15.0769  16.3944  16.4472  16.4472  17.4222  17.4222  17.5931  17.8524
    17.9524  18.1801  18.9105  19.2218  19.2218  19.4531  19.7079  19.7079

          k =-0.2000 0.0000 0.0000 ( 10395 PWs)   bands (ev):

   -20.1672 -14.4658  -8.8719  -8.8719   0.7228   2.3044   2.3044   2.3562
     2.5336   3.1429   3.1429   3.3149   3.9442   3.9442   4.3801   5.4603
     5.4996   6.8591   6.9447   6.9447   7.4141   8.1919   8.2660   8.2660
     8.4278   8.9056   8.9056  10.0390  11.4968  12.0101  12.7589  12.7589
    13.0554  14.6097  14.6828  14.6828  14.9958  15.1277  15.4036  15.4649
    15.4649  15.4768  15.7605  15.7605  16.0672  16.4050  16.8411  16.8411
    17.0254  17.4880  17.4880  17.8903  18.2142  18.2521  19.1693  19.8530

          k =-0.1750 0.0000 0.0000 ( 10375 PWs)   bands (ev):

   -20.2858 -14.2509  -9.0735  -9.0735   0.5171   2.0919   2.0919   2.1420
     2.3289   3.1007   3.7248   3.7248   3.8162   3.8162   4.1755   5.2204
     5.2461   6.6449   6.7313   6.7313   7.2047   7.9777   8.0520   8.0520
     8.2135   8.6938   8.6938   9.8597  11.2826  11.7960  12.5450  12.5450
    12.8459  14.4700  14.4700  14.7816  14.9241  15.1894  15.2507  15.2507
    15.2626  15.4876  16.6056  16.6056  16.6306  16.6306  16.9956  17.2772
    17.7343  17.9537  18.0380  18.3612  18.3612  19.0894  19.6387  19.8933

          k =-0.2250 0.0000 0.0000 ( 10403 PWs)   bands (ev):

   -20.0337 -14.6986  -8.6437  -8.6437   0.9554   2.4518   2.4518   2.5567
     2.5567   2.5990   2.7651   3.5577   4.1858   4.1858   4.6117   5.7031
     5.7913   7.1019   7.1865   7.1865   7.6510   8.4347   8.5085   8.5085
     8.6706   9.1455   9.1455  10.2400  11.7395  12.2529  13.0013  13.0013
    13.2924  13.7632  14.9141  14.9141  14.9244  14.9244  15.1674  15.2386
    15.3563  15.5655  15.6464  15.7077  15.7077  15.7196  16.1257  16.6235
    16.6235  17.0801  17.0801  17.3698  18.0611  18.2697  18.4948  19.5253

          k =-0.2000 0.0000 0.0000 ( 10395 PWs)   bands (ev):

   -20.1672 -14.4658  -8.8719  -8.8719   0.7228   2.3044   2.3044   2.3562
     2.5336   3.1429   3.1429   3.3149   3.9442   3.9442   4.3801   5.4603
     5.4996   6.8591   6.9447   6.9447   7.4141   8.1919   8.2660   8.2660
     8.4278   8.9056   8.9056  10.0390  11.4968  12.0101  12.7589  12.7589
    13.0554  14.6097  14.6828  14.6828  14.9958  15.1277  15.4036  15.4649
    15.4649  15.4768  15.7605  15.7605  16.0672  16.4050  16.8411  16.8411
    17.0254  17.4880  17.4880  17.8903  18.2142  18.2521  19.1693  19.8530

          k =-0.2500 0.0000 0.0000 ( 10359 PWs)   bands (ev):

   -19.8856 -14.9462  -8.3890  -8.3890   1.2148   1.7758   1.7758   2.8177
     2.8177   2.8704   3.0233   3.8291   4.4561   4.4561   4.8701   5.9745
     6.0844   7.3732   7.4568   7.4568   7.9152   8.7061   8.7796   8.7796
     8.9420   9.4137   9.4137  10.4613  12.0109  12.5241  12.9501  13.2722
    13.2722  13.5569  14.0813  14.0813  14.2962  14.7598  15.1933  15.1933
    15.2546  15.5099  15.6106  15.7769  15.7769  15.9178  15.9790  15.9790
    15.9910  16.5637  17.3469  17.3469  17.3987  18.2369  18.7175  18.7175

          k =-0.2250 0.0000 0.0000 ( 10403 PWs)   bands (ev):

   -20.0337 -14.6986  -8.6437  -8.6437   0.9554   2.4518   2.4518   2.5567
     2.5567   2.5990   2.7651   3.5577   4.1858   4.1858   4.6117   5.7031
     5.7913   7.1019   7.1865   7.1865   7.6510   8.4347   8.5085   8.5085
     8.6706   9.1455   9.1455  10.2400  11.7395  12.2529  13.0013  13.0013
    13.2924  13.7632  14.9141  14.9141  14.9244  14.9244  15.1674  15.2386
    15.3563  15.5655  15.6464  15.7077  15.7077  15.7196  16.1257  16.6235
    16.6235  17.0801  17.0801  17.3698  18.0611  18.2697  18.4948  19.5253

          k =-0.2750 0.0000 0.0000 ( 10367 PWs)   bands (ev):

   -19.7233 -15.2060  -8.1079  -8.1079   1.0935   1.0935   1.5007   3.1155
     3.1155   3.1703   3.3080   4.1290   4.7548   4.7548   5.1549   6.2744
     6.3639   7.6731   7.7555   7.7555   8.2065   9.0060   9.0792   9.0792
     9.2419   9.7099   9.7099  10.7013  12.1741  12.3107  12.8239  13.2667
    13.2667  13.4536  13.5716  13.5716  13.8474  13.9936  14.4120  14.9524
    14.9524  15.4909  15.4909  15.7942  15.8098  15.8912  16.2177  16.2789
    16.2789  16.2909  16.5563  17.6416  17.6416  17.9139  17.9139  17.9546

          k =-0.2500 0.0000 0.0000 ( 10359 PWs)   bands (ev):

   -19.8856 -14.9462  -8.3890  -8.3890   1.2148   1.7758   1.7758   2.8177
     2.8177   2.8704   3.0233   3.8291   4.4561   4.4561   4.8701   5.9745
     6.0844   7.3732   7.4568   7.4568   7.9152   8.7061   8.7796   8.7796
     8.9420   9.4137   9.4137  10.4613  12.0109  12.5241  12.9501  13.2722
    13.2722  13.5569  14.0813  14.0813  14.2962  14.7598  15.1933  15.1933
    15.2546  15.5099  15.6106  15.7769  15.7769  15.9178  15.9790  15.9790
    15.9910  16.5637  17.3469  17.3469  17.3987  18.2369  18.7175  18.7175

          k =-0.3000 0.0000 0.0000 ( 10355 PWs)   bands (ev):

   -19.5472 -15.4752  -7.8006  -7.8006   0.4180   0.4180   1.8126   3.4419
     3.4419   3.4988   3.6187   4.4575   5.0820   5.0820   5.4660   6.6028
     6.6102   8.0015   8.0826   8.0826   8.5244   9.3345   9.4073   9.4073
     9.5704  10.0342  10.0342  10.9563  11.4400  12.4744  12.4744  12.6391
    12.6395  13.1523  13.2678  13.5979  13.8994  13.8994  14.1524  14.1524
    14.1661  15.0786  15.7424  15.8168  15.8168  16.1382  16.1857  16.5462
    16.6074  16.6074  16.6194  17.1259  17.1259  17.1408  17.8094  17.9642

          k =-0.2750 0.0000 0.0000 ( 10367 PWs)   bands (ev):

   -19.7233 -15.2060  -8.1079  -8.1079   1.0935   1.0935   1.5007   3.1155
     3.1155   3.1703   3.3080   4.1290   4.7548   4.7548   5.1549   6.2744
     6.3639   7.6731   7.7555   7.7555   8.2065   9.0060   9.0792   9.0792
     9.2419   9.7099   9.7099  10.7013  12.1741  12.3107  12.8239  13.2667
    13.2667  13.4536  13.5716  13.5716  13.8474  13.9936  14.4120  14.9524
    14.9524  15.4909  15.4909  15.7942  15.8098  15.8912  16.2177  16.2789
    16.2789  16.2909  16.5563  17.6416  17.6416  17.9139  17.9139  17.9546

          k =-0.3250 0.0000 0.0000 ( 10355 PWs)   bands (ev):

   -19.3580 -15.7514  -7.4673  -7.4673  -0.2467  -0.2467   2.1502   3.7967
     3.7967   3.8559   3.9551   4.8145   5.4376   5.4376   5.8027   6.7972
     6.9598   8.3585   8.4380   8.4380   8.8683   9.6915   9.7639   9.7639
     9.9274  10.3865  10.3865  10.7434  11.2320  11.7062  11.7062  11.8540
    12.5904  12.8124  12.9962  13.3780  13.3780  13.5092  14.2558  14.2558
    14.4127  14.5135  14.9570  16.1706  16.1706  16.3552  16.3595  16.3595
    16.4955  16.4989  16.9032  16.9644  16.9644  16.9765  17.0496  17.6895

          k =-0.3000 0.0000 0.0000 ( 10355 PWs)   bands (ev):

   -19.5472 -15.4752  -7.8006  -7.8006   0.4180   0.4180   1.8126   3.4419
     3.4419   3.4988   3.6187   4.4575   5.0820   5.0820   5.4660   6.6028
     6.6102   8.0015   8.0826   8.0826   8.5244   9.3345   9.4073   9.4073
     9.5704  10.0342  10.0342  10.9563  11.4400  12.4744  12.4744  12.6391
    12.6395  13.1523  13.2678  13.5979  13.8994  13.8994  14.1524  14.1524
    14.1661  15.0786  15.7424  15.8168  15.8168  16.1382  16.1857  16.5462
    16.6074  16.6074  16.6194  17.1259  17.1259  17.1408  17.8094  17.9642

          k =-0.3500 0.0000 0.0000 ( 10323 PWs)   bands (ev):

   -19.1560 -16.0321  -7.1082  -7.1082  -0.8974  -0.8974   2.5127   4.1798
     4.1798   4.2415   4.3167   5.2002   5.8216   5.8216   6.1641   6.8934
     7.3454   8.7441   8.8218   8.8218   9.2369  10.0771  10.1046  10.1490
    10.1490  10.3131  10.7662  10.7662  10.9639  10.9639  11.0970  11.5047
    11.9680  12.0555  12.6302  12.6302  13.3817  13.8256  13.8945  14.2004
    14.6406  14.6406  14.8779  15.5986  15.6166  15.6166  16.3215  16.5529
    16.5529  16.8217  16.8808  16.9325  16.9823  16.9823  17.1686  17.2888

          k =-0.3250 0.0000 0.0000 ( 10355 PWs)   bands (ev):

   -19.3580 -15.7514  -7.4673  -7.4673  -0.2467  -0.2467   2.1502   3.7967
     3.7967   3.8559   3.9551   4.8145   5.4376   5.4376   5.8027   6.7972
     6.9598   8.3585   8.4380   8.4380   8.8683   9.6915   9.7639   9.7639
     9.9274  10.3865  10.3865  10.7434  11.2320  11.7062  11.7062  11.8540
    12.5904  12.8124  12.9962  13.3780  13.3780  13.5092  14.2558  14.2558
    14.4127  14.5135  14.9570  16.1706  16.1706  16.3552  16.3595  16.3595
    16.4955  16.4989  16.9032  16.9644  16.9644  16.9765  17.0496  17.6895

          k =-0.3750 0.0000 0.0000 ( 10323 PWs)   bands (ev):

   -18.9421 -16.3153  -6.7237  -6.7237  -1.5317  -1.5317   2.8992   4.5912
     4.5912   4.6557   4.7025   5.6143   6.2339   6.2339   6.5463   6.8710
     7.7596   9.1582   9.2340   9.2340   9.5090   9.6353  10.2465  10.2465
    10.3686  10.4913  10.5626  10.5626  10.7273  11.1751  11.1751  11.3271
    11.3717  11.8051  11.9095  11.9095  13.3265  13.4718  13.7957  14.3089
    14.8704  14.8995  14.8995  15.0539  15.0539  15.2663  15.6334  16.2041
    16.2588  16.2588  16.4403  16.7570  16.7570  16.9634  16.9634  17.1338

          k =-0.3500 0.0000 0.0000 ( 10323 PWs)   bands (ev):

   -19.1560 -16.0321  -7.1082  -7.1082  -0.8974  -0.8974   2.5127   4.1798
     4.1798   4.2415   4.3167   5.2002   5.8216   5.8216   6.1641   6.8934
     7.3454   8.7441   8.8218   8.8218   9.2369  10.0771  10.1046  10.1490
    10.1490  10.3131  10.7662  10.7662  10.9639  10.9639  11.0970  11.5047
    11.9680  12.0555  12.6302  12.6302  13.3817  13.8256  13.8945  14.2004
    14.6406  14.6406  14.8779  15.5986  15.6166  15.6166  16.3215  16.5529
    16.5529  16.8217  16.8808  16.9325  16.9823  16.9823  17.1686  17.2888

          k =-0.4000 0.0000 0.0000 ( 10291 PWs)   bands (ev):

   -18.7169 -16.5988  -6.3141  -6.3141  -2.1475  -2.1475   3.3083   5.0308
     5.0308   5.0984   5.1116   6.0571   6.6746   6.6746   6.6862   6.9761
     8.2023   8.9678   9.5561   9.5561   9.6009   9.6688   9.6750   9.6750
    10.0434  10.6274  10.8405  10.9341  11.0046  11.0046  11.1700  11.2159
    11.2159  11.6113  11.6113  12.0721  12.7721  12.9382  14.1696  14.2086
    14.2087  14.2395  14.7514  14.9850  15.4954  15.4954  15.5044  15.5628
    15.5628  15.6754  15.7404  16.0809  16.0809  17.4014  17.4014  17.4058

          k =-0.3750 0.0000 0.0000 ( 10323 PWs)   bands (ev):

   -18.9421 -16.3153  -6.7237  -6.7237  -1.5317  -1.5317   2.8992   4.5912
     4.5912   4.6557   4.7025   5.6143   6.2339   6.2339   6.5463   6.8710
     7.7596   9.1582   9.2340   9.2340   9.5090   9.6353  10.2465  10.2465
    10.3686  10.4913  10.5626  10.5626  10.7273  11.1751  11.1751  11.3271
    11.3717  11.8051  11.9095  11.9095  13.3265  13.4718  13.7957  14.3089
    14.8704  14.8995  14.8995  15.0539  15.0539  15.2663  15.6334  16.2041
    16.2588  16.2588  16.4403  16.7570  16.7570  16.9634  16.9634  17.1338

          k =-0.4250 0.0000 0.0000 ( 10287 PWs)   bands (ev):

   -18.4814 -16.8807  -5.8804  -5.8804  -2.7429  -2.7429   3.7381   5.4986
     5.4986   5.5419   5.5697   6.4018   6.5284   7.1436   7.1436   7.4021
     8.4508   8.6734   8.8939   8.8939   8.9976   9.9556  10.0727  10.1432
    10.1432  10.3160  10.4842  10.5502  10.5502  11.4054  11.4752  11.4752
    11.6413  12.0748  12.0748  12.1010  12.2977  12.6833  13.4995  13.5448
    13.5448  14.3945  14.7097  14.8330  14.8941  14.8941  15.0691  15.2226
    15.4293  15.4293  15.9658  15.9658  16.0893  17.5858  17.8673  17.8673

          k =-0.4000 0.0000 0.0000 ( 10291 PWs)   bands (ev):

   -18.7169 -16.5988  -6.3141  -6.3141  -2.1475  -2.1475   3.3083   5.0308
     5.0308   5.0984   5.1116   6.0571   6.6746   6.6746   6.6862   6.9761
     8.2023   8.9678   9.5561   9.5561   9.6009   9.6688   9.6750   9.6750
    10.0434  10.6274  10.8405  10.9341  11.0046  11.0046  11.1700  11.2159
    11.2159  11.6113  11.6113  12.0721  12.7721  12.9382  14.1696  14.2086
    14.2087  14.2395  14.7514  14.9850  15.4954  15.4954  15.5044  15.5628
    15.5628  15.6754  15.7404  16.0809  16.0809  17.4014  17.4014  17.4058

          k =-0.4500 0.0000 0.0000 ( 10271 PWs)   bands (ev):

   -18.2372 -17.1587  -5.4240  -5.4240  -3.3152  -3.3152   4.1855   5.9593
     5.9946   5.9946   6.0530   6.0696   7.0282   7.6409   7.6409   7.8444
     7.9566   8.2587   8.2587   8.3548   9.1734   9.3134   9.8178   9.9123
     9.9123  10.5720  10.6401  10.6401  10.9149  11.4583  11.9053  11.9741
    11.9741  12.1412  12.2973  12.5659  12.5659  12.6913  12.8569  12.9085
    12.9085  13.8817  14.1904  14.2537  14.2537  14.4264  14.8035  14.8036
    15.2094  15.7222  16.4643  16.4643  16.4882  17.4940  17.5824  17.9423

          k =-0.4250 0.0000 0.0000 ( 10287 PWs)   bands (ev):

   -18.4814 -16.8807  -5.8804  -5.8804  -2.7429  -2.7429   3.7381   5.4986
     5.4986   5.5419   5.5697   6.4018   6.5284   7.1436   7.1436   7.4021
     8.4508   8.6734   8.8939   8.8939   8.9976   9.9556  10.0727  10.1432
    10.1432  10.3160  10.4842  10.5502  10.5502  11.4054  11.4752  11.4752
    11.6413  12.0748  12.0748  12.1010  12.2977  12.6833  13.4995  13.5448
    13.5448  14.3945  14.7097  14.8330  14.8941  14.8941  15.0691  15.2226
    15.4293  15.4293  15.9658  15.9658  16.0893  17.5858  17.8673  17.8673

          k =-0.4750 0.0000 0.0000 ( 10246 PWs)   bands (ev):

   -17.9883 -17.4281  -4.9518  -4.9518  -3.8573  -3.8573   4.6453   5.5780
     6.4668   6.5186   6.5186   6.5981   7.4442   7.5566   7.6508   7.6508
     7.7407   8.1667   8.1667   8.3294   8.6993   9.3024   9.3024   9.3159
     9.7017  10.8444  11.1004  11.1651  11.1651  11.3418  12.0849  12.2429
    12.2994  12.2994  12.4337  12.5015  12.5015  12.6697  12.8696  13.0848
    13.0848  13.4847  13.5763  13.6414  13.6414  13.8123  14.2040  14.2040
    15.7377  16.2503  16.8197  16.8801  16.9911  16.9911  17.3928  17.4126

          k =-0.4500 0.0000 0.0000 ( 10271 PWs)   bands (ev):

   -18.2372 -17.1587  -5.4240  -5.4240  -3.3152  -3.3152   4.1855   5.9593
     5.9946   5.9946   6.0530   6.0696   7.0282   7.6409   7.6409   7.8444
     7.9566   8.2587   8.2587   8.3548   9.1734   9.3134   9.8178   9.9123
     9.9123  10.5720  10.6401  10.6401  10.9149  11.4583  11.9053  11.9741
    11.9741  12.1412  12.2973  12.5659  12.5659  12.6913  12.8569  12.9085
    12.9085  13.8817  14.1904  14.2537  14.2537  14.4264  14.8035  14.8036
    15.2094  15.7222  16.4643  16.4643  16.4882  17.4940  17.5824  17.9423

     highest occupied, lowest unoccupied level (ev):    -4.5843   -4.2481

     Writing output data file ./_ph0/carbyne.q_2/carbyne.save/

     phonons calculation                                                        

     bravais-lattice index     =            0
     lattice parameter (alat)  =       4.8482  a.u.
     unit-cell volume          =    1731.3136 (a.u.)^3
     number of atoms/cell      =            2
     number of atomic types    =            1
     kinetic-energy cut-off    =      50.0000  Ry
     charge density cut-off    =     400.0000  Ry
     convergence threshold     =      1.0E-12
     beta                      =       0.7000
     number of iterations used =            4
     Exchange-correlation= PBE
                           (   1   4   3   4   0   0   0)


     celldm(1)=    4.84817  celldm(2)=    0.00000  celldm(3)=    0.00000
     celldm(4)=    0.00000  celldm(5)=    0.00000  celldm(6)=    0.00000

     crystal axes: (cart. coord. in units of alat)
               a(1) = (  1.0000  0.0000  0.0000 )  
               a(2) = (  0.0000  3.8978  0.0000 )  
               a(3) = (  0.0000  0.0000  3.8978 )  

     reciprocal axes: (cart. coord. in units 2 pi/alat)
               b(1) = (  1.0000  0.0000  0.0000 )  
               b(2) = (  0.0000  0.2566  0.0000 )  
               b(3) = (  0.0000  0.0000  0.2566 )  


     Atoms inside the unit cell: 

     Cartesian axes

     site n.  atom      mass           positions (alat units)
        1     C   12.0107   tau(    1) = (    0.00015    1.94891    1.94891  )
        2     C   12.0107   tau(    2) = (    0.49282    1.94891    1.94891  )

     Computing dynamical matrix for 
                    q = (   0.0250000   0.0000000   0.0000000 )
 
      8 Sym.Ops. (no q -> -q+G )


     G cutoff =  238.1531  ( 233967 G-vectors)     FFT grid: ( 32,125,125)
     G cutoff =  119.0766  (  82581 G-vectors)  smooth grid: ( 24, 90, 90)
     number of k points=    80

     PseudoPot. # 1 for C  read from file:
     ./pseudo/C.pbe-n-kjpaw_psl.1.0.0.UPF
     MD5 check sum: 6fec8efd722f5d988670a8dc528584a2
     Pseudo is Projector augmented-wave + core cor, Zval =  4.0
     Generated using "atomic" code by A. Dal Corso  v.5.1.2
     Shape of augmentation charge: PSQ
     Using radial grid of 1073 points,  4 beta functions with: 
                l(1) =   0
                l(2) =   0
                l(3) =   1
                l(4) =   1
     Q(r) pseudized with 0 coefficients 


     Mode symmetry, C_4v (4mm)  point group:


     Atomic displacements:
     There are    4 irreducible representations

     Representation     1      1 modes -  To be done

     Representation     2      1 modes -  To be done

     Representation     3      2 modes -  To be done

     Representation     4      2 modes -  To be done



     Alpha used in Ewald sum =   2.8000

     negative rho (up, down):  1.845E-04 0.000E+00
     PHONON       :   2m39.96s CPU   3m14.29s WALL



     Representation #   1 mode #   1

     Self-consistent Calculation

      iter #   1 total cpu time :   196.7 secs   av.it.:   5.8
      thresh= 1.000E-02 alpha_mix =  0.700 |ddv_scf|^2 =  2.693E-03

      iter #   2 total cpu time :   198.8 secs   av.it.:   7.2
      thresh= 5.190E-03 alpha_mix =  0.700 |ddv_scf|^2 =  2.043E+00

      iter #   3 total cpu time :   202.3 secs   av.it.:   6.2
      thresh= 1.000E-02 alpha_mix =  0.700 |ddv_scf|^2 =  1.263E-05

      iter #   4 total cpu time :   205.2 secs   av.it.:   7.3
      thresh= 3.554E-04 alpha_mix =  0.700 |ddv_scf|^2 =  9.908E-08

      iter #   5 total cpu time :   208.0 secs   av.it.:   8.4
      thresh= 3.148E-05 alpha_mix =  0.700 |ddv_scf|^2 =  3.413E-07

      iter #   6 total cpu time :   210.5 secs   av.it.:   7.7
      thresh= 5.842E-05 alpha_mix =  0.700 |ddv_scf|^2 =  2.921E-05

      iter #   7 total cpu time :   214.8 secs   av.it.:   6.0
      thresh= 5.405E-04 alpha_mix =  0.700 |ddv_scf|^2 =  4.115E-06

      iter #   8 total cpu time :   217.1 secs   av.it.:   5.7
      thresh= 2.029E-04 alpha_mix =  0.700 |ddv_scf|^2 =  1.591E-07

      iter #   9 total cpu time :   219.5 secs   av.it.:   5.7
      thresh= 3.989E-05 alpha_mix =  0.700 |ddv_scf|^2 =  1.536E-08

      iter #  10 total cpu time :   221.9 secs   av.it.:   5.7
      thresh= 1.239E-05 alpha_mix =  0.700 |ddv_scf|^2 =  8.923E-10

      iter #  11 total cpu time :   224.4 secs   av.it.:   7.2
      thresh= 2.987E-06 alpha_mix =  0.700 |ddv_scf|^2 =  2.210E-09

      iter #  12 total cpu time :   226.7 secs   av.it.:   6.3
      thresh= 4.701E-06 alpha_mix =  0.700 |ddv_scf|^2 =  1.189E-10

      iter #  13 total cpu time :   229.0 secs   av.it.:   6.3
      thresh= 1.090E-06 alpha_mix =  0.700 |ddv_scf|^2 =  1.844E-12

      iter #  14 total cpu time :   231.5 secs   av.it.:   6.3
      thresh= 1.358E-07 alpha_mix =  0.700 |ddv_scf|^2 =  4.812E-13

     End of self-consistent calculation

     Convergence has been achieved 


     Representation #   2 mode #   2

     Self-consistent Calculation

      iter #   1 total cpu time :   234.8 secs   av.it.:   5.8
      thresh= 1.000E-02 alpha_mix =  0.700 |ddv_scf|^2 =  2.695E-03

      iter #   2 total cpu time :   237.0 secs   av.it.:   7.2
      thresh= 5.191E-03 alpha_mix =  0.700 |ddv_scf|^2 =  2.045E+00

      iter #   3 total cpu time :   239.2 secs   av.it.:   6.2
      thresh= 1.000E-02 alpha_mix =  0.700 |ddv_scf|^2 =  1.260E-05

      iter #   4 total cpu time :   244.5 secs   av.it.:   7.3
      thresh= 3.550E-04 alpha_mix =  0.700 |ddv_scf|^2 =  1.002E-07

      iter #   5 total cpu time :   248.0 secs   av.it.:   8.4
      thresh= 3.165E-05 alpha_mix =  0.700 |ddv_scf|^2 =  3.574E-07

      iter #   6 total cpu time :   250.6 secs   av.it.:   7.7
      thresh= 5.978E-05 alpha_mix =  0.700 |ddv_scf|^2 =  3.008E-05

      iter #   7 total cpu time :   254.3 secs   av.it.:   6.0
      thresh= 5.484E-04 alpha_mix =  0.700 |ddv_scf|^2 =  4.296E-06

      iter #   8 total cpu time :   256.8 secs   av.it.:   5.7
      thresh= 2.073E-04 alpha_mix =  0.700 |ddv_scf|^2 =  1.628E-07

      iter #   9 total cpu time :   259.6 secs   av.it.:   5.6
      thresh= 4.035E-05 alpha_mix =  0.700 |ddv_scf|^2 =  1.703E-08

      iter #  10 total cpu time :   262.4 secs   av.it.:   5.7
      thresh= 1.305E-05 alpha_mix =  0.700 |ddv_scf|^2 =  7.361E-10

      iter #  11 total cpu time :   266.2 secs   av.it.:   7.2
      thresh= 2.713E-06 alpha_mix =  0.700 |ddv_scf|^2 =  2.312E-09

      iter #  12 total cpu time :   268.5 secs   av.it.:   6.3
      thresh= 4.808E-06 alpha_mix =  0.700 |ddv_scf|^2 =  1.245E-10

      iter #  13 total cpu time :   271.0 secs   av.it.:   6.3
      thresh= 1.116E-06 alpha_mix =  0.700 |ddv_scf|^2 =  1.826E-12

      iter #  14 total cpu time :   273.1 secs   av.it.:   6.3
      thresh= 1.351E-07 alpha_mix =  0.700 |ddv_scf|^2 =  4.703E-13

     End of self-consistent calculation

     Convergence has been achieved 


     Representation #   3 modes #   3   4

     Self-consistent Calculation

      iter #   1 total cpu time :   279.4 secs   av.it.:   5.5
      thresh= 1.000E-02 alpha_mix =  0.700 |ddv_scf|^2 =  1.165E-07

      iter #   2 total cpu time :   284.3 secs   av.it.:   9.3
      thresh= 3.413E-05 alpha_mix =  0.700 |ddv_scf|^2 =  1.209E-08

      iter #   3 total cpu time :   289.1 secs   av.it.:   9.9
      thresh= 1.099E-05 alpha_mix =  0.700 |ddv_scf|^2 =  1.032E-09

      iter #   4 total cpu time :   293.4 secs   av.it.:  10.0
      thresh= 3.213E-06 alpha_mix =  0.700 |ddv_scf|^2 =  1.095E-13

     End of self-consistent calculation

     Convergence has been achieved 


     Representation #   4 modes #   5   6

     Self-consistent Calculation

      iter #   1 total cpu time :   300.1 secs   av.it.:   5.5
      thresh= 1.000E-02 alpha_mix =  0.700 |ddv_scf|^2 =  1.277E-07

      iter #   2 total cpu time :   304.4 secs   av.it.:   9.3
      thresh= 3.573E-05 alpha_mix =  0.700 |ddv_scf|^2 =  1.292E-08

      iter #   3 total cpu time :   308.9 secs   av.it.:   9.9
      thresh= 1.137E-05 alpha_mix =  0.700 |ddv_scf|^2 =  1.125E-09

      iter #   4 total cpu time :   316.4 secs   av.it.:  10.0
      thresh= 3.354E-06 alpha_mix =  0.700 |ddv_scf|^2 =  9.955E-14

     End of self-consistent calculation

     Convergence has been achieved 
 
     Number of q in the star =    1
     List of q in the star:
          1   0.025000000   0.000000000   0.000000000
     In addition there is the -q list: 
          1  -0.025000000   0.000000000   0.000000000

     Diagonalizing the dynamical matrix

     q = (    0.025000000   0.000000000   0.000000000 ) 

 **************************************************************************
     freq (    1) =       0.657723 [THz] =      21.939266 [cm-1]
     freq (    2) =       0.657723 [THz] =      21.939266 [cm-1]
     freq (    3) =       2.400489 [THz] =      80.071680 [cm-1]
     freq (    4) =      14.819486 [THz] =     494.324837 [cm-1]
     freq (    5) =      14.819486 [THz] =     494.324837 [cm-1]
     freq (    6) =      44.146462 [THz] =    1472.567462 [cm-1]
 **************************************************************************

     Mode symmetry, C_4v (4mm)  point group:

     freq (   1-   2) =         21.9  [cm-1]   --> E    G_5 D_5       
     freq (   3-   3) =         80.1  [cm-1]   --> A_1  G_1 D_1       
     freq (   4-   5) =        494.3  [cm-1]   --> E    G_5 D_5       
     freq (   6-   6) =       1472.6  [cm-1]   --> A_1  G_1 D_1       

     Calculation of q =    0.0500000   0.0000000   0.0000000
     Message from routine divide_et_impera:
     suboptimal parallelization: some nodes have no k-points
 
     G-vector sticks info
     --------------------
     sticks:   dense  smooth     PW     G-vecs:    dense   smooth      PW
     Sum        2927    1445    425               233967    82581   13503
 

     Title: 
     phonons calculation                                                        


     bravais-lattice index     =            0
     lattice parameter (alat)  =       4.8482  a.u.
     unit-cell volume          =    1731.3136 (a.u.)^3
     number of atoms/cell      =            2
     number of atomic types    =            1
     number of electrons       =         8.00
[...]
    11.3717  11.8051  11.9095  11.9095  13.3265  13.4718  13.7957  14.3089
    14.8704  14.8995  14.8995  15.0539  15.0539  15.2663  15.6334  16.2041
    16.2588  16.2588  16.4403  16.7570  16.7570  16.9634  16.9634  17.1338

          k =-0.1250 0.0000 0.0000 ( 10359 PWs)   bands (ev):

   -20.4770 -13.8864  -9.3964  -9.3964   0.1874   1.7512   1.7512   1.7992
     2.0009   2.7579   3.3883   3.3883   3.8475   4.7333   4.9034   5.0608
     5.0609   6.3021   6.3898   6.3898   6.8693   7.6349   7.7096   7.7096
     7.8708   8.3547   8.3547   9.5693  10.9399  11.4533  12.2027  12.2027
    12.5100  14.1295  14.1295  14.4389  14.5967  14.8466  14.9079  14.9079
    14.9198  16.2922  16.2922  17.3280  17.4712  17.6953  18.1369  18.1369
    18.9379  19.1101  19.2961  19.5510  19.5510  19.7370  19.8959  20.0204

          k = 0.4000 0.0000 0.0000 ( 10291 PWs)   bands (ev):

   -18.7169 -16.5988  -6.3141  -6.3141  -2.1475  -2.1475   3.3083   5.0308
     5.0308   5.0984   5.1116   6.0571   6.6746   6.6746   6.6862   6.9761
     8.2023   8.9678   9.5561   9.5561   9.6009   9.6688   9.6750   9.6750
    10.0434  10.6274  10.8405  10.9341  11.0046  11.0046  11.1700  11.2159
    11.2159  11.6113  11.6113  12.0721  12.7721  12.9382  14.1696  14.2086
    14.2087  14.2395  14.7514  14.9850  15.4954  15.4954  15.5044  15.5628
    15.5628  15.6754  15.7404  16.0809  16.0809  17.4014  17.4014  17.4058

          k =-0.1000 0.0000 0.0000 ( 10355 PWs)   bands (ev):

   -20.5492 -13.7424  -9.5177  -9.5177   0.0635   1.6233   1.6233   1.6707
     1.8776   2.6294   3.2603   3.2603   3.7244   4.5381   4.7749   5.6095
     5.6096   6.1736   6.2618   6.2618   6.7433   7.5064   7.5811   7.5811
     7.7422   8.2275   8.2275   9.4594  10.8114  11.3248  12.0744  12.0744
    12.3839  14.0017  14.0017  14.3104  14.4733  14.7181  14.7794  14.7794
    14.7912  16.1654  16.1654  17.3689  17.5668  18.2862  18.6030  18.6030
    19.1675  19.4228  19.4228  19.6085  19.9519  20.0647  20.3295  20.3295

          k = 0.4250 0.0000 0.0000 ( 10287 PWs)   bands (ev):

   -18.4814 -16.8807  -5.8804  -5.8804  -2.7429  -2.7429   3.7381   5.4986
     5.4986   5.5419   5.5697   6.4018   6.5284   7.1436   7.1436   7.4021
     8.4508   8.6734   8.8939   8.8939   8.9976   9.9556  10.0727  10.1432
    10.1432  10.3160  10.4842  10.5502  10.5502  11.4054  11.4752  11.4752
    11.6413  12.0748  12.0748  12.1010  12.2977  12.6833  13.4995  13.5448
    13.5448  14.3945  14.7097  14.8330  14.8941  14.8941  15.0691  15.2226
    15.4293  15.4293  15.9658  15.9658  16.0893  17.5858  17.8673  17.8673

          k =-0.0750 0.0000 0.0000 ( 10335 PWs)   bands (ev):

   -20.6055 -13.6275  -9.6121  -9.6121  -0.0329   1.5239   1.5239   1.5707
     1.7817   2.5294   3.1607   3.1607   3.6286   4.3815   4.6749   6.0736
     6.0774   6.0774   6.1634   6.1634   6.6453   7.4064   7.4812   7.4812
     7.6422   8.1285   8.1285   9.3736  10.7114  11.2249  11.9745  11.9745
    12.2858  13.9023  13.9023  14.2104  14.3772  14.6181  14.6794  14.6794
    14.6913  16.0666  16.0666  17.2886  17.4669  18.7205  18.7205  19.0676
    19.2632  19.3233  19.3233  19.5085  20.2330  20.2330  20.9945  21.0373

          k = 0.4500 0.0000 0.0000 ( 10271 PWs)   bands (ev):

   -18.2372 -17.1587  -5.4240  -5.4240  -3.3152  -3.3152   4.1855   5.9593
     5.9946   5.9946   6.0530   6.0696   7.0282   7.6409   7.6409   7.8444
     7.9566   8.2587   8.2587   8.3548   9.1734   9.3134   9.8178   9.9123
     9.9123  10.5720  10.6401  10.6401  10.9149  11.4583  11.9053  11.9741
    11.9741  12.1412  12.2973  12.5659  12.5659  12.6913  12.8569  12.9085
    12.9085  13.8817  14.1904  14.2537  14.2537  14.4264  14.8035  14.8036
    15.2094  15.7222  16.4643  16.4643  16.4882  17.4940  17.5824  17.9423

          k =-0.0500 0.0000 0.0000 ( 10355 PWs)   bands (ev):

   -20.6458 -13.5438  -9.6795  -9.6795  -0.1018   1.4528   1.4528   1.4993
     1.7132   2.4580   3.0895   3.0895   3.5601   4.2671   4.6035   6.0022
     6.0905   6.0905   6.4423   6.4423   6.5753   7.3350   7.4099   7.4099
     7.5708   8.0578   8.0578   9.3121  10.6400  11.1535  11.9032  11.9032
    12.2156  13.8313  13.8313  14.1390  14.3085  14.5467  14.6080  14.6080
    14.6199  15.9960  15.9960  17.2307  17.3955  18.6269  18.6269  18.9962
    19.2521  19.2521  19.4371  20.1634  20.1634  20.2479  21.1916  21.3778

          k = 0.4750 0.0000 0.0000 ( 10246 PWs)   bands (ev):

   -17.9883 -17.4281  -4.9518  -4.9518  -3.8573  -3.8573   4.6453   5.5780
     6.4668   6.5186   6.5186   6.5981   7.4442   7.5566   7.6508   7.6508
     7.7407   8.1667   8.1667   8.3294   8.6993   9.3024   9.3024   9.3159
     9.7017  10.8444  11.1004  11.1651  11.1651  11.3418  12.0849  12.2429
    12.2994  12.2994  12.4337  12.5015  12.5015  12.6697  12.8696  13.0848
    13.0848  13.4847  13.5763  13.6414  13.6414  13.8123  14.2040  14.2040
    15.7377  16.2503  16.8197  16.8801  16.9911  16.9911  17.3928  17.4126

          k =-0.0250 0.0000 0.0000 ( 10395 PWs)   bands (ev):

   -20.6700 -13.4929  -9.7200  -9.7199  -0.1431   1.4102   1.4102   1.4564
     1.6721   2.4152   3.0468   3.0468   3.5190   4.1974   4.5606   5.9594
     6.0479   6.0479   6.5333   6.6734   6.6735   7.2921   7.3671   7.3671
     7.5280   8.0153   8.0153   9.2752  10.5972  11.1106  11.8604  11.8604
    12.1736  13.7887  13.7887  14.0962  14.2672  14.5039  14.5651  14.5651
    14.5770  15.9536  15.9536  17.1958  17.3527  18.5063  18.5063  18.9534
    19.2094  19.2094  19.3943  20.1214  20.1214  21.1488  21.1986  21.3482

          k =-0.5000 0.0000 0.0000 ( 10242 PWs)   bands (ev):

   -17.7968 -17.6264  -4.5843  -4.5843  -4.2481  -4.2480   5.0674   5.1622
     6.9144   6.9863   7.0570   7.0570   7.0845   7.0845   7.1509   7.1592
     8.1054   8.1220   8.7126   8.7126   8.7283   8.7283   8.7816   8.8530
    10.2468  10.2707  11.6473  11.6549  11.6674  11.7092  11.7092  11.7273
    11.7273  11.8485  12.9886  12.9928  12.9935  13.0520  13.0520  13.0624
    13.0624  13.2238  13.2296  13.2901  13.6171  13.6171  13.6448  13.6448
    16.2840  16.3053  16.7908  16.8237  16.9739  17.3110  17.5400  17.5400

          k =-1.0000 0.0000 0.0000 ( 10379 PWs)   bands (ev):

   -20.6781 -13.4758  -9.7334  -9.7334  -0.1569   1.3960   1.3960   1.4422
     1.6584   2.4009   3.0326   3.0326   3.5053   4.1740   4.5464   5.9451
     6.0337   6.0337   6.5193   6.7531   6.7531   7.2778   7.3528   7.3528
     7.5137   8.0011   8.0011   9.2628  10.5829  11.0964  11.8462  11.8462
    12.1595  13.7745  13.7745  14.0819  14.2534  14.4896  14.5509  14.5509
    14.5627  15.9394  15.9394  17.1841  17.3384  18.4566  18.4566  18.9391
    19.1951  19.1951  19.3800  20.1073  20.1073  21.1345  21.3378  21.7920

     highest occupied, lowest unoccupied level (ev):    -4.5843   -4.2481

     Writing output data file ./_ph0/carbyne.q_21/carbyne.save/

     phonons calculation                                                        

     bravais-lattice index     =            0
     lattice parameter (alat)  =       4.8482  a.u.
     unit-cell volume          =    1731.3136 (a.u.)^3
     number of atoms/cell      =            2
     number of atomic types    =            1
     kinetic-energy cut-off    =      50.0000  Ry
     charge density cut-off    =     400.0000  Ry
     convergence threshold     =      1.0E-12
     beta                      =       0.7000
     number of iterations used =            4
     Exchange-correlation= PBE
                           (   1   4   3   4   0   0   0)


     celldm(1)=    4.84817  celldm(2)=    0.00000  celldm(3)=    0.00000
     celldm(4)=    0.00000  celldm(5)=    0.00000  celldm(6)=    0.00000

     crystal axes: (cart. coord. in units of alat)
               a(1) = (  1.0000  0.0000  0.0000 )  
               a(2) = (  0.0000  3.8978  0.0000 )  
               a(3) = (  0.0000  0.0000  3.8978 )  

     reciprocal axes: (cart. coord. in units 2 pi/alat)
               b(1) = (  1.0000  0.0000  0.0000 )  
               b(2) = (  0.0000  0.2566  0.0000 )  
               b(3) = (  0.0000  0.0000  0.2566 )  


     Atoms inside the unit cell: 

     Cartesian axes

     site n.  atom      mass           positions (alat units)
        1     C   12.0107   tau(    1) = (    0.00015    1.94891    1.94891  )
        2     C   12.0107   tau(    2) = (    0.49282    1.94891    1.94891  )

     Computing dynamical matrix for 
                    q = (  -0.5000000   0.0000000   0.0000000 )
 
      9 Sym.Ops. (with q -> -q+G )


     G cutoff =  238.1531  ( 233967 G-vectors)     FFT grid: ( 32,125,125)
     G cutoff =  119.0766  (  82581 G-vectors)  smooth grid: ( 24, 90, 90)
     number of k points=    42

     PseudoPot. # 1 for C  read from file:
     ./pseudo/C.pbe-n-kjpaw_psl.1.0.0.UPF
     MD5 check sum: 6fec8efd722f5d988670a8dc528584a2
     Pseudo is Projector augmented-wave + core cor, Zval =  4.0
     Generated using "atomic" code by A. Dal Corso  v.5.1.2
     Shape of augmentation charge: PSQ
     Using radial grid of 1073 points,  4 beta functions with: 
                l(1) =   0
                l(2) =   0
                l(3) =   1
                l(4) =   1
     Q(r) pseudized with 0 coefficients 


     Mode symmetry, C_4v (4mm)  point group:


     Atomic displacements:
     There are    4 irreducible representations

     Representation     1      1 modes -  To be done

     Representation     2      1 modes -  To be done

     Representation     3      2 modes -  To be done

     Representation     4      2 modes -  To be done



     Alpha used in Ewald sum =   2.8000

     negative rho (up, down):  1.845E-04 0.000E+00
     PHONON       :  34m 7.36s CPU  40m 7.45s WALL



     Representation #   1 mode #   1

     Self-consistent Calculation

      iter #   1 total cpu time :  2409.7 secs   av.it.:   6.0
      thresh= 1.000E-02 alpha_mix =  0.700 |ddv_scf|^2 =  1.004E-06

      iter #   2 total cpu time :  2412.0 secs   av.it.:  10.5
      thresh= 1.002E-04 alpha_mix =  0.700 |ddv_scf|^2 =  1.424E-06

      iter #   3 total cpu time :  2414.5 secs   av.it.:  10.2
      thresh= 1.193E-04 alpha_mix =  0.700 |ddv_scf|^2 =  6.502E-08

      iter #   4 total cpu time :  2417.3 secs   av.it.:  10.1
      thresh= 2.550E-05 alpha_mix =  0.700 |ddv_scf|^2 =  2.426E-08

      iter #   5 total cpu time :  2419.9 secs   av.it.:  10.2
      thresh= 1.557E-05 alpha_mix =  0.700 |ddv_scf|^2 =  2.667E-12

      iter #   6 total cpu time :  2422.2 secs   av.it.:  10.1
      thresh= 1.633E-07 alpha_mix =  0.700 |ddv_scf|^2 =  2.026E-14

     End of self-consistent calculation

     Convergence has been achieved 


     Representation #   2 mode #   2

     Self-consistent Calculation

      iter #   1 total cpu time :  2425.6 secs   av.it.:   6.0
      thresh= 1.000E-02 alpha_mix =  0.700 |ddv_scf|^2 =  1.082E-06

      iter #   2 total cpu time :  2428.0 secs   av.it.:  10.5
      thresh= 1.040E-04 alpha_mix =  0.700 |ddv_scf|^2 =  1.431E-06

      iter #   3 total cpu time :  2430.3 secs   av.it.:  10.3
      thresh= 1.196E-04 alpha_mix =  0.700 |ddv_scf|^2 =  8.104E-08

      iter #   4 total cpu time :  2432.9 secs   av.it.:  10.0
      thresh= 2.847E-05 alpha_mix =  0.700 |ddv_scf|^2 =  2.480E-08

      iter #   5 total cpu time :  2435.6 secs   av.it.:  10.2
      thresh= 1.575E-05 alpha_mix =  0.700 |ddv_scf|^2 =  2.863E-12

      iter #   6 total cpu time :  2438.1 secs   av.it.:  10.1
      thresh= 1.692E-07 alpha_mix =  0.700 |ddv_scf|^2 =  2.071E-14

     End of self-consistent calculation

     Convergence has been achieved 


     Representation #   3 modes #   3   4

     Self-consistent Calculation

      iter #   1 total cpu time :  2443.2 secs   av.it.:   5.4
      thresh= 1.000E-02 alpha_mix =  0.700 |ddv_scf|^2 =  1.139E-07

      iter #   2 total cpu time :  2447.6 secs   av.it.:   9.5
      thresh= 3.375E-05 alpha_mix =  0.700 |ddv_scf|^2 =  1.003E-08

      iter #   3 total cpu time :  2452.1 secs   av.it.:   8.4
      thresh= 1.001E-05 alpha_mix =  0.700 |ddv_scf|^2 =  5.360E-12

      iter #   4 total cpu time :  2456.1 secs   av.it.:  10.4
      thresh= 2.315E-07 alpha_mix =  0.700 |ddv_scf|^2 =  3.614E-14

     End of self-consistent calculation

     Convergence has been achieved 


     Representation #   4 modes #   5   6

     Self-consistent Calculation

      iter #   1 total cpu time :  2462.4 secs   av.it.:   5.4
      thresh= 1.000E-02 alpha_mix =  0.700 |ddv_scf|^2 =  1.246E-07

      iter #   2 total cpu time :  2466.4 secs   av.it.:   9.4
      thresh= 3.530E-05 alpha_mix =  0.700 |ddv_scf|^2 =  1.099E-08

      iter #   3 total cpu time :  2471.2 secs   av.it.:   8.4
      thresh= 1.048E-05 alpha_mix =  0.700 |ddv_scf|^2 =  4.935E-12

      iter #   4 total cpu time :  2475.0 secs   av.it.:  10.4
      thresh= 2.221E-07 alpha_mix =  0.700 |ddv_scf|^2 =  3.708E-14

     End of self-consistent calculation

     Convergence has been achieved 
 
     Number of q in the star =    1
     List of q in the star:
          1  -0.500000000   0.000000000   0.000000000

     Diagonalizing the dynamical matrix

     q = (   -0.500000000   0.000000000   0.000000000 ) 

 **************************************************************************
     freq (    1) =      10.277446 [THz] =     342.818692 [cm-1]
     freq (    2) =      10.277446 [THz] =     342.818692 [cm-1]
     freq (    3) =      10.530051 [THz] =     351.244690 [cm-1]
     freq (    4) =      10.530051 [THz] =     351.244690 [cm-1]
     freq (    5) =      51.224745 [THz] =    1708.673559 [cm-1]
     freq (    6) =      56.502431 [THz] =    1884.718244 [cm-1]
 **************************************************************************

     Mode symmetry, C_4v (4mm)  point group:

     freq (   1-   2) =        342.8  [cm-1]   --> E    G_5 D_5       
     freq (   3-   4) =        351.2  [cm-1]   --> E    G_5 D_5       
     freq (   5-   5) =       1708.7  [cm-1]   --> A_1  G_1 D_1       
     freq (   6-   6) =       1884.7  [cm-1]   --> A_1  G_1 D_1       
 
     init_run     :     16.32s CPU     24.98s WALL (      20 calls)
     electrons    :    210.76s CPU    217.97s WALL (      20 calls)

     Called by init_run:
     wfcinit      :      0.00s CPU      0.56s WALL (      20 calls)
     potinit      :      8.99s CPU     13.54s WALL (      20 calls)
     hinit0       :      4.56s CPU      4.83s WALL (      20 calls)

     Called by electrons:
     c_bands      :    210.65s CPU    217.38s WALL (      20 calls)
     v_of_rho     :      5.47s CPU      6.17s WALL (      21 calls)
     newd         :      0.32s CPU      2.01s WALL (      21 calls)
     PAW_pot      :      0.69s CPU      1.31s WALL (      21 calls)

     Called by c_bands:
     init_us_2    :      1.02s CPU      3.44s WALL (     677 calls)
     cegterg      :    184.69s CPU    187.14s WALL (      41 calls)

     Called by *egterg:
     cdiaghg      :      5.43s CPU      8.92s WALL (     749 calls)
     h_psi        :    288.46s CPU    295.11s WALL (    6904 calls)
     s_psi        :      9.39s CPU      9.98s WALL (   13663 calls)
     g_psi        :      1.08s CPU      1.08s WALL (     709 calls)

     Called by h_psi:
     h_psi:calbec :      5.71s CPU      6.01s WALL (    6904 calls)
     vloc_psi     :    274.00s CPU    279.26s WALL (    6904 calls)
     add_vuspsi   :      6.32s CPU      6.78s WALL (    6904 calls)

     General routines
     calbec       :     14.97s CPU     19.44s WALL (   15516 calls)
     fft          :     85.00s CPU     92.40s WALL (   13115 calls)
     ffts         :      4.42s CPU      5.07s WALL (    2210 calls)
     fftw         :    250.99s CPU    256.63s WALL (  128426 calls)
     interpolate  :     20.92s CPU     28.99s WALL (    1448 calls)
     davcio       :      1.29s CPU    131.09s WALL (    6355 calls)
 
     Parallel routines
 
     PHONON       :  35m 5.26s CPU  41m17.22s WALL

     INITIALIZATION: 
     phq_setup    :      9.37s CPU     11.87s WALL (      21 calls)
     phq_init     :    378.76s CPU    390.77s WALL (      21 calls)
 
     phq_init     :    378.76s CPU    390.77s WALL (      21 calls)
     set_drhoc    :     75.41s CPU     76.05s WALL (      63 calls)
     init_vloc    :      0.96s CPU      0.98s WALL (      21 calls)
     init_us_1    :      1.61s CPU      1.68s WALL (      21 calls)
     newd         :      0.32s CPU      2.01s WALL (      21 calls)
     dvanqq       :    190.10s CPU    193.62s WALL (      21 calls)
     drho         :     64.66s CPU     69.33s WALL (      21 calls)
 
     DYNAMICAL MATRIX:
     dynmat0      :     79.96s CPU     82.60s WALL (      21 calls)
     phqscf       :   1443.69s CPU   1745.54s WALL (      21 calls)
     dynmatrix    :      4.40s CPU     13.61s WALL (      21 calls)
 
     phqscf       :   1443.69s CPU   1745.54s WALL (      21 calls)
     solve_linter :   1425.33s CPU   1711.32s WALL (      84 calls)
     drhodv       :     14.28s CPU     15.85s WALL (      84 calls)
 
     dynmat0      :     79.96s CPU     82.60s WALL (      21 calls)
     dynmat_us    :      2.77s CPU      2.90s WALL (      21 calls)
     d2ionq       :      0.82s CPU      0.95s WALL (      21 calls)
     dynmatcc     :     56.88s CPU     57.39s WALL (      21 calls)
 
     dynmat_us    :      2.77s CPU      2.90s WALL (      21 calls)
     addusdynmat  :      0.00s CPU      0.00s WALL (      21 calls)
 
     phqscf       :   1443.69s CPU   1745.54s WALL (      21 calls)
     solve_linter :   1425.33s CPU   1711.32s WALL (      84 calls)
 
     solve_linter :   1425.33s CPU   1711.32s WALL (      84 calls)
     dvqpsi_us    :     46.16s CPU     47.76s WALL (     132 calls)
     ortho        :      0.98s CPU      9.57s WALL (     642 calls)
     cgsolve      :    173.20s CPU    180.15s WALL (     642 calls)
     incdrhoscf   :     22.19s CPU     24.60s WALL (     642 calls)
     addusddens   :    276.44s CPU    290.35s WALL (     537 calls)
     vpsifft      :     14.12s CPU     15.66s WALL (     495 calls)
     dv_of_drho   :    159.39s CPU    166.00s WALL (     642 calls)
     mix_pot      :     14.66s CPU    103.33s WALL (     459 calls)
     psymdvscf    :     70.93s CPU     73.95s WALL (     453 calls)
     newdq        :    260.89s CPU    265.75s WALL (     459 calls)
     adddvscf     :      6.62s CPU      7.06s WALL (     510 calls)
     drhodvus     :     20.09s CPU     40.63s WALL (      84 calls)
 
     dvqpsi_us    :     46.16s CPU     47.76s WALL (     132 calls)
     dvqpsi_us_on :      3.09s CPU      3.23s WALL (     132 calls)
 
     cgsolve      :    173.20s CPU    180.15s WALL (     642 calls)
     ch_psi       :    166.87s CPU    172.98s WALL (    6114 calls)
 
     ch_psi       :    166.87s CPU    172.98s WALL (    6114 calls)
     h_psi        :    288.46s CPU    295.11s WALL (    6904 calls)
     last         :     14.00s CPU     14.49s WALL (    6114 calls)
 
     h_psi        :    288.46s CPU    295.11s WALL (    6904 calls)
     add_vuspsi   :      6.32s CPU      6.78s WALL (    6904 calls)
 
     incdrhoscf   :     22.19s CPU     24.60s WALL (     642 calls)
     addusdbec    :      2.76s CPU      2.99s WALL (     768 calls)
 
     drhodvus     :     20.09s CPU     40.63s WALL (      84 calls)
 
      General routines
     calbec       :     14.97s CPU     19.44s WALL (   15516 calls)
     fft          :     85.00s CPU     92.40s WALL (   13115 calls)
     ffts         :      4.42s CPU      5.07s WALL (    2210 calls)
     fftw         :    250.99s CPU    256.63s WALL (  128426 calls)
     davcio       :      1.29s CPU    131.09s WALL (    6355 calls)
     write_rec    :      1.24s CPU     62.35s WALL (     543 calls)
 
 
     PHONON       :  35m 5.26s CPU  41m17.22s WALL

 
   This run was terminated on:   9:22:54  25Jun2021            

=------------------------------------------------------------------------------=
   JOB DONE.
=------------------------------------------------------------------------------=
