
     Program PWSCF v.6.7MaX starts on 25Jun2021 at  8:41:15 

     This program is part of the open-source Quantum ESPRESSO suite
     for quantum simulation of materials; please cite
         "P. Giannozzi et al., J. Phys.:Condens. Matter 21 395502 (2009);
         "P. Giannozzi et al., J. Phys.:Condens. Matter 29 465901 (2017);
          URL http://www.quantum-espresso.org", 
     in publications or presentations arising from this work. More details at
     http://www.quantum-espresso.org/quote

     Parallel version (MPI & OpenMP), running on      56 processor cores
     Number of MPI processes:                56
     Threads/MPI process:                     1

     MPI processes distributed on     2 nodes
     K-points division:     npool     =      56
     Waiting for input...
     Reading input from standard input

     Current dimensions of program PWSCF are:
     Max number of different atomic species (ntypx) = 10
     Max number of k-points (npk) =  40000
     Max angular momentum in pseudopotentials (lmaxx) =  3
     file C.pbe-n-kjpaw_psl.1.0.0.UPF: wavefunction(s)  2S 2P renormalized

     Subspace diagonalization in iterative solution of the eigenvalue problem:
     a serial algorithm will be used

     Message from routine setup:
     using ibrav=0 with symmetry is DISCOURAGED, use correct ibrav instead
     Message from routine divide_et_impera:
     suboptimal parallelization: some nodes have no k-points
 
     G-vector sticks info
     --------------------
     sticks:   dense  smooth     PW     G-vecs:    dense   smooth      PW
     Sum        2927    1445    425               233967    82581   13359
 


     bravais-lattice index     =            0
     lattice parameter (alat)  =       4.8482  a.u.
     unit-cell volume          =    1731.3136 (a.u.)^3
     number of atoms/cell      =            2
     number of atomic types    =            1
     number of electrons       =         8.00
     number of Kohn-Sham states=           56
     kinetic-energy cutoff     =      50.0000  Ry
     charge density cutoff     =     400.0000  Ry
     scf convergence threshold =      1.0E-08
     mixing beta               =       0.7000
     number of iterations used =            8  plain     mixing
     Exchange-correlation= SLA  PW   PBX  PBC
                           (   1   4   3   4   0   0   0)

     celldm(1)=   4.848172  celldm(2)=   0.000000  celldm(3)=   0.000000
     celldm(4)=   0.000000  celldm(5)=   0.000000  celldm(6)=   0.000000

     crystal axes: (cart. coord. in units of alat)
               a(1) = (   1.000000   0.000000   0.000000 )  
               a(2) = (   0.000000   3.897812   0.000000 )  
               a(3) = (   0.000000   0.000000   3.897812 )  

     reciprocal axes: (cart. coord. in units 2 pi/alat)
               b(1) = (  1.000000  0.000000  0.000000 )  
               b(2) = (  0.000000  0.256554  0.000000 )  
               b(3) = (  0.000000  0.000000  0.256554 )  


     PseudoPot. # 1 for C  read from file:
     ./pseudo/C.pbe-n-kjpaw_psl.1.0.0.UPF
     MD5 check sum: 6fec8efd722f5d988670a8dc528584a2
     Pseudo is Projector augmented-wave + core cor, Zval =  4.0
     Generated using "atomic" code by A. Dal Corso  v.5.1.2
     Shape of augmentation charge: PSQ
     Using radial grid of 1073 points,  4 beta functions with: 
                l(1) =   0
                l(2) =   0
                l(3) =   1
                l(4) =   1
     Q(r) pseudized with 0 coefficients 


     atomic species   valence    mass     pseudopotential
        C              4.00    12.01070     C ( 1.00)

      8 Sym. Ops. (no inversion) found


                                    s                        frac. trans.

      isym =  1     identity                                     

 cryst.   s( 1) = (     1          0          0      )
                  (     0          1          0      )
                  (     0          0          1      )

 cart.    s( 1) = (  1.0000000  0.0000000  0.0000000 )
                  (  0.0000000  1.0000000  0.0000000 )
                  (  0.0000000  0.0000000  1.0000000 )


      isym =  2     180 deg rotation - cart. axis [1,0,0]        

 cryst.   s( 2) = (     1          0          0      )
                  (     0         -1          0      )
                  (     0          0         -1      )

 cart.    s( 2) = (  1.0000000  0.0000000  0.0000000 )
                  (  0.0000000 -1.0000000  0.0000000 )
                  (  0.0000000  0.0000000 -1.0000000 )


      isym =  3      90 deg rotation - cart. axis [-1,0,0]       

 cryst.   s( 3) = (     1          0          0      )
                  (     0          0         -1      )
                  (     0          1          0      )

 cart.    s( 3) = (  1.0000000  0.0000000  0.0000000 )
                  (  0.0000000  0.0000000  1.0000000 )
                  (  0.0000000 -1.0000000  0.0000000 )


      isym =  4      90 deg rotation - cart. axis [1,0,0]        

 cryst.   s( 4) = (     1          0          0      )
                  (     0          0          1      )
                  (     0         -1          0      )

 cart.    s( 4) = (  1.0000000  0.0000000  0.0000000 )
                  (  0.0000000  0.0000000 -1.0000000 )
                  (  0.0000000  1.0000000  0.0000000 )


      isym =  5     inv. 180 deg rotation - cart. axis [0,0,1]   

 cryst.   s( 5) = (     1          0          0      )
                  (     0          1          0      )
                  (     0          0         -1      )

 cart.    s( 5) = (  1.0000000  0.0000000  0.0000000 )
                  (  0.0000000  1.0000000  0.0000000 )
                  (  0.0000000  0.0000000 -1.0000000 )


      isym =  6     inv. 180 deg rotation - cart. axis [0,1,0]   

 cryst.   s( 6) = (     1          0          0      )
                  (     0         -1          0      )
                  (     0          0          1      )

 cart.    s( 6) = (  1.0000000  0.0000000  0.0000000 )
                  (  0.0000000 -1.0000000  0.0000000 )
                  (  0.0000000  0.0000000  1.0000000 )


      isym =  7     inv. 180 deg rotation - cart. axis [0,1,1]   

 cryst.   s( 7) = (     1          0          0      )
                  (     0          0         -1      )
                  (     0         -1          0      )

 cart.    s( 7) = (  1.0000000  0.0000000  0.0000000 )
                  (  0.0000000  0.0000000 -1.0000000 )
                  (  0.0000000 -1.0000000  0.0000000 )


      isym =  8     inv. 180 deg rotation - cart. axis [0,1,-1]  

 cryst.   s( 8) = (     1          0          0      )
                  (     0          0          1      )
                  (     0          1          0      )

 cart.    s( 8) = (  1.0000000  0.0000000  0.0000000 )
                  (  0.0000000  0.0000000  1.0000000 )
                  (  0.0000000  1.0000000  0.0000000 )


   Cartesian axes

     site n.     atom                  positions (alat units)
         1           C   tau(   1) = (   0.0001503   1.9489059   1.9489059  )
         2           C   tau(   2) = (   0.4928235   1.9489059   1.9489059  )

   Crystallographic axes

     site n.     atom                  positions (cryst. coord.)
         1           C   tau(   1) = (  0.0001503  0.5000000  0.5000000  )
         2           C   tau(   2) = (  0.4928235  0.5000000  0.5000000  )

     number of k points=    21
                       cart. coord. in units 2pi/alat
        k(    1) = (   0.0000000   0.0000000   0.0000000), wk =   0.0500000
        k(    2) = (   0.0250000   0.0000000   0.0000000), wk =   0.1000000
        k(    3) = (   0.0500000   0.0000000   0.0000000), wk =   0.1000000
        k(    4) = (   0.0750000   0.0000000   0.0000000), wk =   0.1000000
        k(    5) = (   0.1000000   0.0000000   0.0000000), wk =   0.1000000
        k(    6) = (   0.1250000   0.0000000   0.0000000), wk =   0.1000000
        k(    7) = (   0.1500000   0.0000000   0.0000000), wk =   0.1000000
        k(    8) = (   0.1750000   0.0000000   0.0000000), wk =   0.1000000
        k(    9) = (   0.2000000   0.0000000   0.0000000), wk =   0.1000000
        k(   10) = (   0.2250000   0.0000000   0.0000000), wk =   0.1000000
        k(   11) = (   0.2500000   0.0000000   0.0000000), wk =   0.1000000
        k(   12) = (   0.2750000   0.0000000   0.0000000), wk =   0.1000000
        k(   13) = (   0.3000000   0.0000000   0.0000000), wk =   0.1000000
        k(   14) = (   0.3250000   0.0000000   0.0000000), wk =   0.1000000
        k(   15) = (   0.3500000   0.0000000   0.0000000), wk =   0.1000000
        k(   16) = (   0.3750000   0.0000000   0.0000000), wk =   0.1000000
        k(   17) = (   0.4000000   0.0000000   0.0000000), wk =   0.1000000
        k(   18) = (   0.4250000   0.0000000   0.0000000), wk =   0.1000000
        k(   19) = (   0.4500000   0.0000000   0.0000000), wk =   0.1000000
        k(   20) = (   0.4750000   0.0000000   0.0000000), wk =   0.1000000
        k(   21) = (  -0.5000000   0.0000000   0.0000000), wk =   0.0500000

                       cryst. coord.
        k(    1) = (   0.0000000   0.0000000   0.0000000), wk =   0.0500000
        k(    2) = (   0.0250000   0.0000000   0.0000000), wk =   0.1000000
        k(    3) = (   0.0500000   0.0000000   0.0000000), wk =   0.1000000
        k(    4) = (   0.0750000   0.0000000   0.0000000), wk =   0.1000000
        k(    5) = (   0.1000000   0.0000000   0.0000000), wk =   0.1000000
        k(    6) = (   0.1250000   0.0000000   0.0000000), wk =   0.1000000
        k(    7) = (   0.1500000   0.0000000   0.0000000), wk =   0.1000000
        k(    8) = (   0.1750000   0.0000000   0.0000000), wk =   0.1000000
        k(    9) = (   0.2000000   0.0000000   0.0000000), wk =   0.1000000
        k(   10) = (   0.2250000   0.0000000   0.0000000), wk =   0.1000000
        k(   11) = (   0.2500000   0.0000000   0.0000000), wk =   0.1000000
        k(   12) = (   0.2750000   0.0000000   0.0000000), wk =   0.1000000
        k(   13) = (   0.3000000   0.0000000   0.0000000), wk =   0.1000000
        k(   14) = (   0.3250000   0.0000000   0.0000000), wk =   0.1000000
        k(   15) = (   0.3500000   0.0000000   0.0000000), wk =   0.1000000
        k(   16) = (   0.3750000   0.0000000   0.0000000), wk =   0.1000000
        k(   17) = (   0.4000000   0.0000000   0.0000000), wk =   0.1000000
        k(   18) = (   0.4250000   0.0000000   0.0000000), wk =   0.1000000
        k(   19) = (   0.4500000   0.0000000   0.0000000), wk =   0.1000000
        k(   20) = (   0.4750000   0.0000000   0.0000000), wk =   0.1000000
        k(   21) = (  -0.5000000   0.0000000   0.0000000), wk =   0.0500000

     Dense  grid:   233967 G-vectors     FFT dimensions: (  32, 125, 125)

     Smooth grid:    82581 G-vectors     FFT dimensions: (  24,  90,  90)

     Dynamical RAM for                 wfc:       8.83 MB

     Dynamical RAM for     wfc (w. buffer):       8.83 MB

     Dynamical RAM for           str. fact:       3.57 MB

     Dynamical RAM for           local pot:       0.00 MB

     Dynamical RAM for          nlocal pot:       2.52 MB

     Dynamical RAM for                qrad:       0.46 MB

     Dynamical RAM for          rho,v,vnew:      22.15 MB

     Dynamical RAM for               rhoin:       7.38 MB

     Dynamical RAM for            rho*nmix:      57.12 MB

     Dynamical RAM for           G-vectors:      14.02 MB

     Dynamical RAM for          h,s,v(r/c):       0.57 MB

     Dynamical RAM for          <psi|beta>:       0.01 MB

     Dynamical RAM for                 psi:      17.67 MB

     Dynamical RAM for                hpsi:      17.67 MB

     Dynamical RAM for                spsi:      17.67 MB

     Dynamical RAM for      wfcinit/wfcrot:      17.74 MB

     Dynamical RAM for           addusdens:       6.37 MB

     Dynamical RAM for          addusforce:       4.78 MB

     Dynamical RAM for         addusstress:       4.94 MB

     Estimated static dynamical RAM per process >     142.28 MB

     Estimated max dynamical RAM per process >     195.86 MB

     Estimated total dynamical RAM >      10.71 GB

     Check: negative core charge=   -0.000002

     Initial potential from superposition of free atoms

     starting charge    7.99992, renormalised to    8.00000

     negative rho (up, down):  9.848E-05 0.000E+00
     Starting wfcs are    8 randomized atomic wfcs +   48 random wfcs
     Checking if some PAW data can be deallocated... 

     total cpu time spent up to now is        3.6 secs

     Self-consistent Calculation

     iteration #  1     ecut=    50.00 Ry     beta= 0.70
     Davidson diagonalization with overlap
     ethr =  1.00E-02,  avg # of iterations =  8.1

     negative rho (up, down):  1.472E-04 0.000E+00

     total cpu time spent up to now is        6.9 secs

     total energy              =     -36.68211733 Ry
     estimated scf accuracy    <       0.27595332 Ry

     iteration #  2     ecut=    50.00 Ry     beta= 0.70
     Davidson diagonalization with overlap
     ethr =  3.45E-03,  avg # of iterations =  2.0

     negative rho (up, down):  1.585E-04 0.000E+00

     total cpu time spent up to now is        8.4 secs

     total energy              =     -36.74188440 Ry
     estimated scf accuracy    <       0.01131501 Ry

     iteration #  3     ecut=    50.00 Ry     beta= 0.70
     Davidson diagonalization with overlap
     ethr =  1.41E-04,  avg # of iterations =  5.2

     negative rho (up, down):  1.812E-04 0.000E+00

     total cpu time spent up to now is       10.1 secs

     total energy              =     -36.74391812 Ry
     estimated scf accuracy    <       0.00026276 Ry

     iteration #  4     ecut=    50.00 Ry     beta= 0.70
     Davidson diagonalization with overlap
     ethr =  3.28E-06,  avg # of iterations =  8.6

     negative rho (up, down):  1.825E-04 0.000E+00

     total cpu time spent up to now is       12.0 secs

     total energy              =     -36.74391225 Ry
     estimated scf accuracy    <       0.00024983 Ry

     iteration #  5     ecut=    50.00 Ry     beta= 0.70
     Davidson diagonalization with overlap
     ethr =  3.12E-06,  avg # of iterations =  1.0

     negative rho (up, down):  1.841E-04 0.000E+00

     total cpu time spent up to now is       13.4 secs

     total energy              =     -36.74395241 Ry
     estimated scf accuracy    <       0.00000239 Ry

     iteration #  6     ecut=    50.00 Ry     beta= 0.70
     Davidson diagonalization with overlap
     ethr =  2.98E-08,  avg # of iterations =  1.8

     negative rho (up, down):  1.844E-04 0.000E+00

     total cpu time spent up to now is       14.9 secs

     total energy              =     -36.74395293 Ry
     estimated scf accuracy    <       0.00000002 Ry

     iteration #  7     ecut=    50.00 Ry     beta= 0.70
     Davidson diagonalization with overlap
     ethr =  2.44E-10,  avg # of iterations =  2.2

     negative rho (up, down):  1.845E-04 0.000E+00

     total cpu time spent up to now is       16.4 secs

     End of self-consistent calculation

          k = 0.0000 0.0000 0.0000 ( 10379 PWs)   bands (ev):

   -20.6776 -13.4754  -9.7330  -9.7330  -0.1570   1.3959   1.3959   1.4420
     1.6584   2.4007   3.0325   3.0325   3.5053   4.1741   4.5464   5.9451
     6.0336   6.0336   6.5192   6.7534   6.7534   7.2778   7.3527   7.3527
     7.5135   8.0011   8.0011   9.2628  10.5828  11.0963  11.8461  11.8461
    12.1594  13.7744  13.7744  14.0818  14.2534  14.4895  14.5507  14.5507
    14.5627  15.9394  15.9394  17.1841  17.3383  18.4569  18.4569  18.9390
    19.1950  19.1950  19.3799  20.1073  20.1073  21.1344  21.3378  21.7920

     occupation numbers 
     1.0000   1.0000   1.0000   1.0000   0.0000   0.0000   0.0000   0.0000
     0.0000   0.0000   0.0000   0.0000   0.0000   0.0000   0.0000   0.0000
     0.0000   0.0000   0.0000   0.0000   0.0000   0.0000   0.0000   0.0000
     0.0000   0.0000   0.0000   0.0000   0.0000   0.0000   0.0000   0.0000
     0.0000   0.0000   0.0000   0.0000   0.0000   0.0000   0.0000   0.0000
     0.0000   0.0000   0.0000   0.0000   0.0000   0.0000   0.0000   0.0000
     0.0000   0.0000   0.0000   0.0000   0.0000   0.0000   0.0000   0.0000

          k = 0.0250 0.0000 0.0000 ( 10395 PWs)   bands (ev):

   -20.6695 -13.4925  -9.7195  -9.7195  -0.1432   1.4101   1.4101   1.4563
     1.6721   2.4150   3.0468   3.0468   3.5190   4.1975   4.5607   5.9594
     6.0478   6.0478   6.5332   6.6738   6.6738   7.2921   7.3670   7.3670
     7.5278   8.0153   8.0153   9.2751  10.5971  11.1106  11.8603  11.8603
    12.1734  13.7886  13.7886  14.0960  14.2672  14.5038  14.5650  14.5650
    14.5769  15.9536  15.9536  17.1958  17.3526  18.5066  18.5066  18.9533
    19.2093  19.2093  19.3942  20.1213  20.1213  21.1487  21.1987  21.3482

     occupation numbers 
     1.0000   1.0000   1.0000   1.0000   0.0000   0.0000   0.0000   0.0000
     0.0000   0.0000   0.0000   0.0000   0.0000   0.0000   0.0000   0.0000
     0.0000   0.0000   0.0000   0.0000   0.0000   0.0000   0.0000   0.0000
     0.0000   0.0000   0.0000   0.0000   0.0000   0.0000   0.0000   0.0000
     0.0000   0.0000   0.0000   0.0000   0.0000   0.0000   0.0000   0.0000
     0.0000   0.0000   0.0000   0.0000   0.0000   0.0000   0.0000   0.0000
     0.0000   0.0000   0.0000   0.0000   0.0000   0.0000   0.0000   0.0000

          k = 0.0500 0.0000 0.0000 ( 10355 PWs)   bands (ev):

   -20.6452 -13.5434  -9.6791  -9.6791  -0.1019   1.4527   1.4527   1.4992
     1.7132   2.4579   3.0895   3.0895   3.5601   4.2672   4.6035   6.0023
     6.0904   6.0904   6.4426   6.4426   6.5752   7.3349   7.4098   7.4098
     7.5707   8.0577   8.0577   9.3120  10.6400  11.1534  11.9031  11.9031
    12.2155  13.8313  13.8313  14.1389  14.3084  14.5466  14.6078  14.6078
    14.6198  15.9960  15.9960  17.2307  17.3954  18.6272  18.6272  18.9961
    19.2520  19.2520  19.4370  20.1633  20.1633  20.2479  21.1915  21.3778

     occupation numbers 
     1.0000   1.0000   1.0000   1.0000   0.0000   0.0000   0.0000   0.0000
     0.0000   0.0000   0.0000   0.0000   0.0000   0.0000   0.0000   0.0000
     0.0000   0.0000   0.0000   0.0000   0.0000   0.0000   0.0000   0.0000
     0.0000   0.0000   0.0000   0.0000   0.0000   0.0000   0.0000   0.0000
     0.0000   0.0000   0.0000   0.0000   0.0000   0.0000   0.0000   0.0000
     0.0000   0.0000   0.0000   0.0000   0.0000   0.0000   0.0000   0.0000
     0.0000   0.0000   0.0000   0.0000   0.0000   0.0000   0.0000   0.0000

          k = 0.0750 0.0000 0.0000 ( 10335 PWs)   bands (ev):

   -20.6049 -13.6272  -9.6116  -9.6116  -0.0330   1.5238   1.5238   1.5706
     1.7817   2.5293   3.1606   3.1606   3.6285   4.3816   4.6749   6.0737
     6.0778   6.0778   6.1633   6.1633   6.6452   7.4064   7.4811   7.4811
     7.6421   8.1285   8.1285   9.3735  10.7114  11.2248  11.9744  11.9744
    12.2856  13.9023  13.9023  14.2103  14.3772  14.6181  14.6793  14.6793
    14.6912  16.0666  16.0666  17.2886  17.4668  18.7208  18.7208  19.0675
    19.2631  19.3232  19.3232  19.5084  20.2330  20.2330  20.9944  21.0374

     occupation numbers 
     1.0000   1.0000   1.0000   1.0000   0.0000   0.0000   0.0000   0.0000
     0.0000   0.0000   0.0000   0.0000   0.0000   0.0000   0.0000   0.0000
     0.0000   0.0000   0.0000   0.0000   0.0000   0.0000   0.0000   0.0000
     0.0000   0.0000   0.0000   0.0000   0.0000   0.0000   0.0000   0.0000
     0.0000   0.0000   0.0000   0.0000   0.0000   0.0000   0.0000   0.0000
     0.0000   0.0000   0.0000   0.0000   0.0000   0.0000   0.0000   0.0000
     0.0000   0.0000   0.0000   0.0000   0.0000   0.0000   0.0000   0.0000

          k = 0.1000 0.0000 0.0000 ( 10355 PWs)   bands (ev):

   -20.5486 -13.7421  -9.5173  -9.5173   0.0634   1.6232   1.6232   1.6706
     1.8776   2.6292   3.2602   3.2602   3.7243   4.5382   4.7749   5.6099
     5.6099   6.1736   6.2617   6.2617   6.7432   7.5063   7.5810   7.5810
     7.7420   8.2275   8.2275   9.4593  10.8113  11.3248  12.0743  12.0743
    12.3838  14.0017  14.0017  14.3103  14.4733  14.7180  14.7792  14.7792
    14.7912  16.1654  16.1654  17.3689  17.5668  18.2861  18.6032  18.6032
    19.1675  19.4228  19.4228  19.6084  19.9518  20.0648  20.3295  20.3296

     occupation numbers 
     1.0000   1.0000   1.0000   1.0000   0.0000   0.0000   0.0000   0.0000
     0.0000   0.0000   0.0000   0.0000   0.0000   0.0000   0.0000   0.0000
     0.0000   0.0000   0.0000   0.0000   0.0000   0.0000   0.0000   0.0000
     0.0000   0.0000   0.0000   0.0000   0.0000   0.0000   0.0000   0.0000
     0.0000   0.0000   0.0000   0.0000   0.0000   0.0000   0.0000   0.0000
     0.0000   0.0000   0.0000   0.0000   0.0000   0.0000   0.0000   0.0000
     0.0000   0.0000   0.0000   0.0000   0.0000   0.0000   0.0000   0.0000

          k = 0.1250 0.0000 0.0000 ( 10359 PWs)   bands (ev):

   -20.4764 -13.8860  -9.3960  -9.3960   0.1873   1.7510   1.7510   1.7991
     2.0009   2.7578   3.3882   3.3882   3.8475   4.7334   4.9034   5.0612
     5.0612   6.3022   6.3897   6.3897   6.8692   7.6349   7.7094   7.7094
     7.8706   8.3547   8.3547   9.5692  10.9398  11.4533  12.2026  12.2026
    12.5099  14.1294  14.1294  14.4388  14.5966  14.8466  14.9078  14.9078
    14.9197  16.2922  16.2922  17.3279  17.4712  17.6953  18.1369  18.1369
    18.9378  19.1102  19.2960  19.5509  19.5509  19.7369  19.8957  20.0205

     occupation numbers 
     1.0000   1.0000   1.0000   1.0000   0.0000   0.0000   0.0000   0.0000
     0.0000   0.0000   0.0000   0.0000   0.0000   0.0000   0.0000   0.0000
     0.0000   0.0000   0.0000   0.0000   0.0000   0.0000   0.0000   0.0000
     0.0000   0.0000   0.0000   0.0000   0.0000   0.0000   0.0000   0.0000
     0.0000   0.0000   0.0000   0.0000   0.0000   0.0000   0.0000   0.0000
     0.0000   0.0000   0.0000   0.0000   0.0000   0.0000   0.0000   0.0000
     0.0000   0.0000   0.0000   0.0000   0.0000   0.0000   0.0000   0.0000

          k = 0.1500 0.0000 0.0000 ( 10351 PWs)   bands (ev):

   -20.3885 -14.0564  -9.2479  -9.2479   0.3385   1.9073   1.9073   1.9562
     2.1513   2.9149   3.5446   3.5446   3.9979   4.4557   4.4557   4.9628
     5.0605   6.4592   6.5462   6.5462   7.0230   7.7920   7.8664   7.8664
     8.0277   8.5101   8.5101   9.7028  11.0969  11.6103  12.3595  12.3595
    12.6639  14.2855  14.2855  14.5959  14.7470  15.0037  15.0649  15.0649
    15.0768  16.3943  16.4471  16.4471  17.4221  17.4221  17.5931  17.8523
    17.9523  18.1801  18.9104  19.2218  19.2218  19.4531  19.7079  19.7079

     occupation numbers 
     1.0000   1.0000   1.0000   1.0000   0.0000   0.0000   0.0000   0.0000
     0.0000   0.0000   0.0000   0.0000   0.0000   0.0000   0.0000   0.0000
     0.0000   0.0000   0.0000   0.0000   0.0000   0.0000   0.0000   0.0000
     0.0000   0.0000   0.0000   0.0000   0.0000   0.0000   0.0000   0.0000
     0.0000   0.0000   0.0000   0.0000   0.0000   0.0000   0.0000   0.0000
     0.0000   0.0000   0.0000   0.0000   0.0000   0.0000   0.0000   0.0000
     0.0000   0.0000   0.0000   0.0000   0.0000   0.0000   0.0000   0.0000

          k = 0.1750 0.0000 0.0000 ( 10375 PWs)   bands (ev):

   -20.2852 -14.2506  -9.0730  -9.0730   0.5170   2.0918   2.0918   2.1419
     2.3289   3.1006   3.7249   3.7249   3.8164   3.8164   4.1755   5.2206
     5.2461   6.6449   6.7312   6.7312   7.2046   7.9776   8.0519   8.0519
     8.2134   8.6937   8.6937   9.8596  11.2825  11.7959  12.5449  12.5449
    12.8457  14.4700  14.4700  14.7815  14.9241  15.1893  15.2505  15.2505
    15.2625  15.4875  16.6055  16.6055  16.6306  16.6306  16.9954  17.2772
    17.7343  17.9535  18.0380  18.3612  18.3612  19.0894  19.6387  19.8933

     occupation numbers 
     1.0000   1.0000   1.0000   1.0000   0.0000   0.0000   0.0000   0.0000
     0.0000   0.0000   0.0000   0.0000   0.0000   0.0000   0.0000   0.0000
     0.0000   0.0000   0.0000   0.0000   0.0000   0.0000   0.0000   0.0000
     0.0000   0.0000   0.0000   0.0000   0.0000   0.0000   0.0000   0.0000
     0.0000   0.0000   0.0000   0.0000   0.0000   0.0000   0.0000   0.0000
     0.0000   0.0000   0.0000   0.0000   0.0000   0.0000   0.0000   0.0000
     0.0000   0.0000   0.0000   0.0000   0.0000   0.0000   0.0000   0.0000

          k = 0.2000 0.0000 0.0000 ( 10395 PWs)   bands (ev):

   -20.1666 -14.4655  -8.8714  -8.8714   0.7227   2.3043   2.3043   2.3561
     2.5336   3.1433   3.1433   3.3148   3.9441   3.9441   4.3801   5.4604
     5.4997   6.8591   6.9446   6.9446   7.4140   8.1919   8.2659   8.2659
     8.4276   8.9055   8.9055  10.0389  11.4967  12.0101  12.7588  12.7588
    13.0552  14.6095  14.6828  14.6828  14.9957  15.1277  15.4036  15.4648
    15.4648  15.4767  15.7604  15.7604  16.0671  16.4050  16.8411  16.8411
    17.0253  17.4879  17.4879  17.8903  18.2142  18.2521  19.1693  19.8530

     occupation numbers 
     1.0000   1.0000   1.0000   1.0000   0.0000   0.0000   0.0000   0.0000
     0.0000   0.0000   0.0000   0.0000   0.0000   0.0000   0.0000   0.0000
     0.0000   0.0000   0.0000   0.0000   0.0000   0.0000   0.0000   0.0000
     0.0000   0.0000   0.0000   0.0000   0.0000   0.0000   0.0000   0.0000
     0.0000   0.0000   0.0000   0.0000   0.0000   0.0000   0.0000   0.0000
     0.0000   0.0000   0.0000   0.0000   0.0000   0.0000   0.0000   0.0000
     0.0000   0.0000   0.0000   0.0000   0.0000   0.0000   0.0000   0.0000

          k = 0.2250 0.0000 0.0000 ( 10403 PWs)   bands (ev):

   -20.0331 -14.6983  -8.6432  -8.6432   0.9553   2.4524   2.4524   2.5564
     2.5564   2.5989   2.7651   3.5576   4.1858   4.1858   4.6117   5.7031
     5.7915   7.1019   7.1864   7.1864   7.6508   8.4347   8.5084   8.5084
     8.6704   9.1455   9.1455  10.2399  11.7395  12.2528  13.0012  13.0012
    13.2923  13.7631  14.9140  14.9140  14.9244  14.9244  15.1673  15.2385
    15.3562  15.5655  15.6464  15.7075  15.7075  15.7195  16.1256  16.6235
    16.6235  17.0800  17.0800  17.3698  18.0611  18.2698  18.4948  19.5253

     occupation numbers 
     1.0000   1.0000   1.0000   1.0000   0.0000   0.0000   0.0000   0.0000
     0.0000   0.0000   0.0000   0.0000   0.0000   0.0000   0.0000   0.0000
     0.0000   0.0000   0.0000   0.0000   0.0000   0.0000   0.0000   0.0000
     0.0000   0.0000   0.0000   0.0000   0.0000   0.0000   0.0000   0.0000
     0.0000   0.0000   0.0000   0.0000   0.0000   0.0000   0.0000   0.0000
     0.0000   0.0000   0.0000   0.0000   0.0000   0.0000   0.0000   0.0000
     0.0000   0.0000   0.0000   0.0000   0.0000   0.0000   0.0000   0.0000

          k = 0.2500 0.0000 0.0000 ( 10359 PWs)   bands (ev):

   -19.8849 -14.9460  -8.3885  -8.3885   1.2147   1.7761   1.7761   2.8176
     2.8176   2.8703   3.0234   3.8289   4.4560   4.4560   4.8701   5.9745
     6.0845   7.3732   7.4567   7.4567   7.9151   8.7060   8.7795   8.7795
     8.9418   9.4136   9.4136  10.4612  12.0108  12.5241  12.9500  13.2721
    13.2721  13.5568  14.0811  14.0811  14.2961  14.7597  15.1932  15.1932
    15.2544  15.5098  15.6106  15.7768  15.7768  15.9177  15.9789  15.9789
    15.9909  16.5637  17.3469  17.3469  17.3988  18.2369  18.7175  18.7175

     occupation numbers 
     1.0000   1.0000   1.0000   1.0000   0.0000   0.0000   0.0000   0.0000
     0.0000   0.0000   0.0000   0.0000   0.0000   0.0000   0.0000   0.0000
     0.0000   0.0000   0.0000   0.0000   0.0000   0.0000   0.0000   0.0000
     0.0000   0.0000   0.0000   0.0000   0.0000   0.0000   0.0000   0.0000
     0.0000   0.0000   0.0000   0.0000   0.0000   0.0000   0.0000   0.0000
     0.0000   0.0000   0.0000   0.0000   0.0000   0.0000   0.0000   0.0000
     0.0000   0.0000   0.0000   0.0000   0.0000   0.0000   0.0000   0.0000

          k = 0.2750 0.0000 0.0000 ( 10367 PWs)   bands (ev):

   -19.7226 -15.2058  -8.1074  -8.1074   1.0938   1.0938   1.5006   3.1154
     3.1154   3.1702   3.3080   4.1289   4.7548   4.7548   5.1549   6.2744
     6.3641   7.6731   7.7554   7.7554   8.2064   9.0060   9.0791   9.0791
     9.2417   9.7098   9.7098  10.7012  12.1740  12.3107  12.8239  13.2666
    13.2666  13.4535  13.5715  13.5715  13.8473  13.9936  14.4118  14.9524
    14.9524  15.4909  15.4909  15.7941  15.8097  15.8913  16.2176  16.2788
    16.2788  16.2908  16.5563  17.6416  17.6416  17.9138  17.9138  17.9546

     occupation numbers 
     1.0000   1.0000   1.0000   1.0000   0.0000   0.0000   0.0000   0.0000
     0.0000   0.0000   0.0000   0.0000   0.0000   0.0000   0.0000   0.0000
     0.0000   0.0000   0.0000   0.0000   0.0000   0.0000   0.0000   0.0000
     0.0000   0.0000   0.0000   0.0000   0.0000   0.0000   0.0000   0.0000
     0.0000   0.0000   0.0000   0.0000   0.0000   0.0000   0.0000   0.0000
     0.0000   0.0000   0.0000   0.0000   0.0000   0.0000   0.0000   0.0000
     0.0000   0.0000   0.0000   0.0000   0.0000   0.0000   0.0000   0.0000

          k = 0.3000 0.0000 0.0000 ( 10355 PWs)   bands (ev):

   -19.5466 -15.4750  -7.8001  -7.8001   0.4183   0.4183   1.8125   3.4418
     3.4418   3.4987   3.6187   4.4573   5.0820   5.0820   5.4660   6.6028
     6.6103   8.0016   8.0825   8.0825   8.5243   9.3344   9.4072   9.4072
     9.5702  10.0341  10.0341  10.9561  11.4399  12.4742  12.4742  12.6391
    12.6394  13.1523  13.2678  13.5978  13.8993  13.8993  14.1523  14.1523
    14.1660  15.0785  15.7424  15.8167  15.8167  16.1381  16.1857  16.5461
    16.6073  16.6073  16.6193  17.1258  17.1259  17.1408  17.8093  17.9642

     occupation numbers 
     1.0000   1.0000   1.0000   1.0000   0.0000   0.0000   0.0000   0.0000
     0.0000   0.0000   0.0000   0.0000   0.0000   0.0000   0.0000   0.0000
     0.0000   0.0000   0.0000   0.0000   0.0000   0.0000   0.0000   0.0000
     0.0000   0.0000   0.0000   0.0000   0.0000   0.0000   0.0000   0.0000
     0.0000   0.0000   0.0000   0.0000   0.0000   0.0000   0.0000   0.0000
     0.0000   0.0000   0.0000   0.0000   0.0000   0.0000   0.0000   0.0000
     0.0000   0.0000   0.0000   0.0000   0.0000   0.0000   0.0000   0.0000

          k = 0.3250 0.0000 0.0000 ( 10355 PWs)   bands (ev):

   -19.3572 -15.7512  -7.4668  -7.4668  -0.2464  -0.2464   2.1501   3.7966
     3.7966   3.8558   3.9552   4.8144   5.4375   5.4375   5.8027   6.7973
     6.9599   8.3586   8.4379   8.4379   8.8681   9.6915   9.7638   9.7638
     9.9273  10.3864  10.3864  10.7433  11.2319  11.7061  11.7061  11.8539
    12.5904  12.8122  12.9961  13.3779  13.3779  13.5092  14.2557  14.2557
    14.4126  14.5134  14.9570  16.1706  16.1706  16.3552  16.3594  16.3594
    16.4953  16.4989  16.9032  16.9643  16.9643  16.9764  17.0495  17.6897

     occupation numbers 
     1.0000   1.0000   1.0000   1.0000   0.0000   0.0000   0.0000   0.0000
     0.0000   0.0000   0.0000   0.0000   0.0000   0.0000   0.0000   0.0000
     0.0000   0.0000   0.0000   0.0000   0.0000   0.0000   0.0000   0.0000
     0.0000   0.0000   0.0000   0.0000   0.0000   0.0000   0.0000   0.0000
     0.0000   0.0000   0.0000   0.0000   0.0000   0.0000   0.0000   0.0000
     0.0000   0.0000   0.0000   0.0000   0.0000   0.0000   0.0000   0.0000
     0.0000   0.0000   0.0000   0.0000   0.0000   0.0000   0.0000   0.0000

          k = 0.3500 0.0000 0.0000 ( 10323 PWs)   bands (ev):

   -19.1553 -16.0320  -7.1077  -7.1077  -0.8971  -0.8971   2.5126   4.1797
     4.1797   4.2414   4.3167   5.2000   5.8215   5.8215   6.1642   6.8936
     7.3454   8.7441   8.8217   8.8217   9.2367  10.0771  10.1045  10.1488
    10.1488  10.3129  10.7662  10.7662  10.9637  10.9637  11.0969  11.5046
    11.9679  12.0553  12.6301  12.6301  13.3816  13.8255  13.8945  14.2004
    14.6405  14.6405  14.8777  15.5986  15.6165  15.6165  16.3214  16.5529
    16.5529  16.8217  16.8807  16.9325  16.9822  16.9824  17.1687  17.2891

     occupation numbers 
     1.0000   1.0000   1.0000   1.0000   0.0000   0.0000   0.0000   0.0000
     0.0000   0.0000   0.0000   0.0000   0.0000   0.0000   0.0000   0.0000
     0.0000   0.0000   0.0000   0.0000   0.0000   0.0000   0.0000   0.0000
     0.0000   0.0000   0.0000   0.0000   0.0000   0.0000   0.0000   0.0000
     0.0000   0.0000   0.0000   0.0000   0.0000   0.0000   0.0000   0.0000
     0.0000   0.0000   0.0000   0.0000   0.0000   0.0000   0.0000   0.0000
     0.0000   0.0000   0.0000   0.0000   0.0000   0.0000   0.0000   0.0000

          k = 0.3750 0.0000 0.0000 ( 10323 PWs)   bands (ev):

   -18.9412 -16.3153  -6.7232  -6.7232  -1.5314  -1.5314   2.8991   4.5911
     4.5911   4.6556   4.7026   5.6142   6.2339   6.2339   6.5465   6.8711
     7.7596   9.1583   9.2338   9.2338   9.5089   9.6351  10.2464  10.2464
    10.3685  10.4913  10.5625  10.5625  10.7271  11.1750  11.1750  11.3270
    11.3716  11.8050  11.9094  11.9094  13.3264  13.4718  13.7957  14.3088
    14.8704  14.8993  14.8993  15.0538  15.0538  15.2662  15.6333  16.2041
    16.2587  16.2587  16.4401  16.7570  16.7570  16.9634  16.9634  17.1337

     occupation numbers 
     1.0000   1.0000   1.0000   1.0000   0.0000   0.0000   0.0000   0.0000
     0.0000   0.0000   0.0000   0.0000   0.0000   0.0000   0.0000   0.0000
     0.0000   0.0000   0.0000   0.0000   0.0000   0.0000   0.0000   0.0000
     0.0000   0.0000   0.0000   0.0000   0.0000   0.0000   0.0000   0.0000
     0.0000   0.0000   0.0000   0.0000   0.0000   0.0000   0.0000   0.0000
     0.0000   0.0000   0.0000   0.0000   0.0000   0.0000   0.0000   0.0000
     0.0000   0.0000   0.0000   0.0000   0.0000   0.0000   0.0000   0.0000

          k = 0.4000 0.0000 0.0000 ( 10291 PWs)   bands (ev):

   -18.7159 -16.5989  -6.3136  -6.3136  -2.1473  -2.1473   3.3082   5.0307
     5.0307   5.0983   5.1116   6.0569   6.6746   6.6746   6.6864   6.9760
     8.2023   8.9678   9.5560   9.5560   9.6009   9.6687   9.6749   9.6749
    10.0433  10.6272  10.8404  10.9340  11.0044  11.0044  11.1698  11.2158
    11.2158  11.6112  11.6112  12.0720  12.7721  12.9381  14.1697  14.2085
    14.2085  14.2394  14.7513  14.9849  15.4953  15.4953  15.5043  15.5627
    15.5627  15.6753  15.7402  16.0808  16.0808  17.4013  17.4013  17.4058

     occupation numbers 
     1.0000   1.0000   1.0000   1.0000   0.0000   0.0000   0.0000   0.0000
     0.0000   0.0000   0.0000   0.0000   0.0000   0.0000   0.0000   0.0000
     0.0000   0.0000   0.0000   0.0000   0.0000   0.0000   0.0000   0.0000
     0.0000   0.0000   0.0000   0.0000   0.0000   0.0000   0.0000   0.0000
     0.0000   0.0000   0.0000   0.0000   0.0000   0.0000   0.0000   0.0000
     0.0000   0.0000   0.0000   0.0000   0.0000   0.0000   0.0000   0.0000
     0.0000   0.0000   0.0000   0.0000   0.0000   0.0000   0.0000   0.0000

          k = 0.4250 0.0000 0.0000 ( 10287 PWs)   bands (ev):

   -18.4803 -16.8809  -5.8797  -5.8797  -2.7427  -2.7427   3.7380   5.4985
     5.4985   5.5419   5.5696   6.4019   6.5282   7.1436   7.1436   7.4021
     8.4508   8.6734   8.8938   8.8938   8.9975   9.9554  10.0727  10.1431
    10.1431  10.3160  10.4841  10.5502  10.5502  11.4053  11.4751  11.4751
    11.6412  12.0748  12.0748  12.1010  12.2976  12.6832  13.4995  13.5447
    13.5447  14.3944  14.7096  14.8330  14.8940  14.8940  15.0690  15.2225
    15.4293  15.4293  15.9657  15.9657  16.0892  17.5854  17.8673  17.8674

     occupation numbers 
     1.0000   1.0000   1.0000   1.0000   0.0000   0.0000   0.0000   0.0000
     0.0000   0.0000   0.0000   0.0000   0.0000   0.0000   0.0000   0.0000
     0.0000   0.0000   0.0000   0.0000   0.0000   0.0000   0.0000   0.0000
     0.0000   0.0000   0.0000   0.0000   0.0000   0.0000   0.0000   0.0000
     0.0000   0.0000   0.0000   0.0000   0.0000   0.0000   0.0000   0.0000
     0.0000   0.0000   0.0000   0.0000   0.0000   0.0000   0.0000   0.0000
     0.0000   0.0000   0.0000   0.0000   0.0000   0.0000   0.0000   0.0000

          k = 0.4500 0.0000 0.0000 ( 10271 PWs)   bands (ev):

   -18.2358 -17.1592  -5.4232  -5.4232  -3.3152  -3.3152   4.1854   5.9596
     5.9944   5.9944   6.0528   6.0695   7.0281   7.6408   7.6408   7.8445
     7.9565   8.2586   8.2586   8.3547   9.1734   9.3132   9.8177   9.9122
     9.9122  10.5721  10.6400  10.6400  10.9147  11.4583  11.9053  11.9740
    11.9740  12.1411  12.2971  12.5659  12.5659  12.6912  12.8569  12.9084
    12.9084  13.8816  14.1903  14.2536  14.2536  14.4263  14.8035  14.8035
    15.2094  15.7221  16.4642  16.4642  16.4880  17.4940  17.5815  17.9430

     occupation numbers 
     1.0000   1.0000   1.0000   1.0000   0.0000   0.0000   0.0000   0.0000
     0.0000   0.0000   0.0000   0.0000   0.0000   0.0000   0.0000   0.0000
     0.0000   0.0000   0.0000   0.0000   0.0000   0.0000   0.0000   0.0000
     0.0000   0.0000   0.0000   0.0000   0.0000   0.0000   0.0000   0.0000
     0.0000   0.0000   0.0000   0.0000   0.0000   0.0000   0.0000   0.0000
     0.0000   0.0000   0.0000   0.0000   0.0000   0.0000   0.0000   0.0000
     0.0000   0.0000   0.0000   0.0000   0.0000   0.0000   0.0000   0.0000

          k = 0.4750 0.0000 0.0000 ( 10246 PWs)   bands (ev):

   -17.9859 -17.4295  -4.9507  -4.9507  -3.8576  -3.8576   4.6453   5.5780
     6.4668   6.5184   6.5184   6.5979   7.4443   7.5565   7.6506   7.6506
     7.7406   8.1667   8.1667   8.3294   8.6991   9.3023   9.3023   9.3159
     9.7017  10.8444  11.1004  11.1650  11.1650  11.3417  12.0848  12.2429
    12.2993  12.2993  12.4337  12.5014  12.5014  12.6695  12.8695  13.0848
    13.0848  13.4847  13.5762  13.6413  13.6413  13.8121  14.2040  14.2040
    15.7376  16.2502  16.8194  16.8801  16.9910  16.9910  17.3928  17.4125

     occupation numbers 
     1.0000   1.0000   1.0000   1.0000   0.0000   0.0000   0.0000   0.0000
     0.0000   0.0000   0.0000   0.0000   0.0000   0.0000   0.0000   0.0000
     0.0000   0.0000   0.0000   0.0000   0.0000   0.0000   0.0000   0.0000
     0.0000   0.0000   0.0000   0.0000   0.0000   0.0000   0.0000   0.0000
     0.0000   0.0000   0.0000   0.0000   0.0000   0.0000   0.0000   0.0000
     0.0000   0.0000   0.0000   0.0000   0.0000   0.0000   0.0000   0.0000
     0.0000   0.0000   0.0000   0.0000   0.0000   0.0000   0.0000   0.0000

          k =-0.5000 0.0000 0.0000 ( 10242 PWs)   bands (ev):

   -17.7898 -17.6325  -4.5817  -4.5817  -4.2499  -4.2499   5.0675   5.1621
     6.9146   6.9861   7.0566   7.0566   7.0846   7.0846   7.1506   7.1593
     8.1049   8.1222   8.7124   8.7124   8.7284   8.7284   8.7817   8.8528
    10.2466  10.2709  11.6472  11.6547  11.6675  11.7089  11.7089  11.7275
    11.7275  11.8485  12.9885  12.9928  12.9933  13.0517  13.0517  13.0625
    13.0625  13.2234  13.2297  13.2902  13.6170  13.6170  13.6449  13.6449
    16.2839  16.3052  16.7908  16.8236  16.9730  17.3117  17.5398  17.5514

     occupation numbers 
     1.0000   1.0000   1.0000   1.0000   0.0000   0.0000   0.0000   0.0000
     0.0000   0.0000   0.0000   0.0000   0.0000   0.0000   0.0000   0.0000
     0.0000   0.0000   0.0000   0.0000   0.0000   0.0000   0.0000   0.0000
     0.0000   0.0000   0.0000   0.0000   0.0000   0.0000   0.0000   0.0000
     0.0000   0.0000   0.0000   0.0000   0.0000   0.0000   0.0000   0.0000
     0.0000   0.0000   0.0000   0.0000   0.0000   0.0000   0.0000   0.0000
     0.0000   0.0000   0.0000   0.0000   0.0000   0.0000   0.0000   0.0000

     highest occupied, lowest unoccupied level (ev):    -4.5817   -4.2499

!    total energy              =     -36.74395294 Ry

     total all-electron energy =      -152.272149 Ry
     estimated scf accuracy    <          1.2E-09 Ry

     The total energy is the sum of the following terms:
     one-electron contribution =     -65.67596404 Ry
     hartree contribution      =      33.79801249 Ry
     xc contribution           =      -9.08750561 Ry
     ewald contribution        =      16.56242232 Ry
     one-center paw contrib.   =     -12.34091810 Ry
      -> PAW hartree energy AE =       9.67548104 Ry
      -> PAW hartree energy PS =      -9.66649773 Ry
      -> PAW xc energy AE      =     -10.72499107 Ry
      -> PAW xc energy PS      =       4.54554843 Ry
      -> total E_H with PAW    =      33.80699581 Ry
      -> total E_XC with PAW   =     -15.26694824 Ry

     convergence has been achieved in   7 iterations

     negative rho (up, down):  1.845E-04 0.000E+00

     Forces acting on atoms (cartesian axes, Ry/au):

     atom    1 type  1   force =     0.00575017    0.00000000    0.00000000
     atom    2 type  1   force =    -0.00575017    0.00000000    0.00000000
     The non-local contrib.  to forces
     atom    1 type  1   force =    -0.07405962    0.00000000    0.00000000
     atom    2 type  1   force =     0.07405488    0.00000000    0.00000000
     The ionic contribution  to forces
     atom    1 type  1   force =    -0.33586965   -0.00000000   -0.00000000
     atom    2 type  1   force =     0.33586965    0.00000000    0.00000000
     The local contribution  to forces
     atom    1 type  1   force =     0.41234956    0.00000000    0.00000000
     atom    2 type  1   force =    -0.41233746    0.00000000    0.00000000
     The core correction contribution to forces
     atom    1 type  1   force =     0.00327310   -0.00000000   -0.00000000
     atom    2 type  1   force =    -0.00340875   -0.00000000   -0.00000000
     The Hubbard contrib.    to forces
     atom    1 type  1   force =     0.00000000    0.00000000    0.00000000
     atom    2 type  1   force =     0.00000000    0.00000000    0.00000000
     The SCF correction term to forces
     atom    1 type  1   force =    -0.00000742    0.00000000    0.00000000
     atom    2 type  1   force =     0.00000731    0.00000000   -0.00000000

     Total force =     0.008132     Total SCF correction =     0.000010


     Computing stress (Cartesian axis) and pressure


     negative rho (up, down):  1.845E-04 0.000E+00
          total   stress  (Ry/bohr**3)                   (kbar)     P=       -0.04
   0.00000012   0.00000000   0.00000000            0.02        0.00        0.00
   0.00000000  -0.00000045   0.00000000            0.00       -0.07        0.00
   0.00000000   0.00000000  -0.00000045            0.00        0.00       -0.07

     kinetic stress (kbar)    624.37      0.00      0.00
                                0.00    907.48      0.00
                                0.00      0.00    907.48

     local   stress (kbar)  -7179.23     -0.00     -0.00
                               -0.00    234.17     -0.00
                               -0.00     -0.00    234.17

     nonloc. stress (kbar)    232.54      0.00      0.00
                                0.00    185.67      0.00
                                0.00      0.00    185.67

     hartree stress (kbar)   2870.46     -0.00      0.00
                               -0.00      0.64      0.00
                                0.00      0.00      0.64

     exc-cor stress (kbar)     -4.17      0.00      0.00
                                0.00    -16.89     -0.00
                                0.00     -0.00    -16.89

     corecor stress (kbar)   -194.49     -0.00     -0.00
                               -0.00   -189.49      0.00
                               -0.00      0.00   -189.49

     ewald   stress (kbar)   3650.55      0.00      0.00
                                0.00  -1121.64     -0.00
                                0.00     -0.00  -1121.64

     hubbard stress (kbar)      0.00      0.00      0.00
                                0.00      0.00      0.00
                                0.00      0.00      0.00

     DFT-D   stress (kbar)      0.00      0.00      0.00
                                0.00      0.00      0.00
                                0.00      0.00      0.00

     XDM     stress (kbar)      0.00      0.00      0.00
                                0.00      0.00      0.00
                                0.00      0.00      0.00

     dft-nl  stress (kbar)      0.00      0.00      0.00
                                0.00      0.00      0.00
                                0.00      0.00      0.00

     TS-vdW  stress (kbar)      0.00      0.00      0.00
                                0.00      0.00      0.00
                                0.00      0.00      0.00



     Writing output data file ./carbyne.save/
 
     init_run     :      1.16s CPU      2.37s WALL (       1 calls)
     electrons    :     12.19s CPU     13.05s WALL (       1 calls)
     forces       :      0.50s CPU      0.59s WALL (       1 calls)
     stress       :      0.85s CPU      0.88s WALL (       1 calls)

     Called by init_run:
     wfcinit      :      0.38s CPU      0.85s WALL (       1 calls)
     wfcinit:atom :      0.00s CPU      0.00s WALL (       1 calls)
     wfcinit:wfcr :      0.35s CPU      0.81s WALL (       1 calls)
     potinit      :      0.45s CPU      0.55s WALL (       1 calls)
     hinit0       :      0.23s CPU      0.73s WALL (       1 calls)

     Called by electrons:
     c_bands      :      7.44s CPU      7.66s WALL (       7 calls)
     sum_band     :      1.94s CPU      2.01s WALL (       7 calls)
     v_of_rho     :      2.18s CPU      2.33s WALL (       8 calls)
     v_h          :      0.15s CPU      0.15s WALL (       8 calls)
     v_xc         :      2.54s CPU      2.71s WALL (      10 calls)
     newd         :      0.12s CPU      0.18s WALL (       8 calls)
     PAW_pot      :      0.14s CPU      0.16s WALL (       8 calls)
     mix_rho      :      0.34s CPU      0.40s WALL (       7 calls)

     Called by c_bands:
     init_us_2    :      0.02s CPU      0.03s WALL (      15 calls)
     cegterg      :      6.92s CPU      7.13s WALL (       7 calls)

     Called by sum_band:
     sum_band:wei :      0.00s CPU      0.00s WALL (       7 calls)
     sum_band:loo :      1.41s CPU      1.41s WALL (       7 calls)
     sum_band:buf :      0.00s CPU      0.00s WALL (       7 calls)
     sum_band:ini :      0.01s CPU      0.01s WALL (       7 calls)
     sum_band:cal :      0.02s CPU      0.02s WALL (       7 calls)
     sum_band:bec :      0.00s CPU      0.00s WALL (       7 calls)
     addusdens    :      0.17s CPU      0.19s WALL (       7 calls)
     addusd:skk   :      0.00s CPU      0.00s WALL (       7 calls)
     addusd:dgemm :      0.01s CPU      0.01s WALL (       7 calls)
     addusd:qvan2 :      0.01s CPU      0.01s WALL (       7 calls)

     Called by *egterg:
     cdiaghg      :      0.08s CPU      0.52s WALL (      27 calls)
     cegterg:over :      0.29s CPU      0.30s WALL (      20 calls)
     cegterg:upda :      0.29s CPU      0.30s WALL (      20 calls)
     cegterg:last :      0.46s CPU      0.46s WALL (      16 calls)
     h_psi        :      5.84s CPU      5.97s WALL (      28 calls)
     s_psi        :      0.08s CPU      0.08s WALL (      28 calls)
     g_psi        :      0.03s CPU      0.03s WALL (      20 calls)

     Called by h_psi:
     h_psi:calbec :      0.06s CPU      0.06s WALL (      28 calls)
     vloc_psi     :      5.64s CPU      5.73s WALL (      28 calls)
     add_vuspsi   :      0.08s CPU      0.08s WALL (      28 calls)

     General routines
     calbec       :      0.09s CPU      0.09s WALL (      40 calls)
     fft          :      0.83s CPU      1.29s WALL (     127 calls)
     ffts         :      0.03s CPU      0.05s WALL (      15 calls)
     fftw         :      4.93s CPU      5.00s WALL (    2540 calls)
     interpolate  :      0.13s CPU      0.14s WALL (       8 calls)
 
     Parallel routines

     PAW routines
     PAW_pot      :      0.14s CPU      0.16s WALL (       8 calls)
     PAW_symme    :      0.06s CPU      0.06s WALL (      15 calls)
 
     PWSCF        :     14.83s CPU     18.60s WALL

 
   This run was terminated on:   8:41:34  25Jun2021            

=------------------------------------------------------------------------------=
   JOB DONE.
=------------------------------------------------------------------------------=
