
     Program PHONON v.6.7MaX starts on 19Jun2021 at 22:53: 0 

     This program is part of the open-source Quantum ESPRESSO suite
     for quantum simulation of materials; please cite
         "P. Giannozzi et al., J. Phys.:Condens. Matter 21 395502 (2009);
         "P. Giannozzi et al., J. Phys.:Condens. Matter 29 465901 (2017);
          URL http://www.quantum-espresso.org", 
     in publications or presentations arising from this work. More details at
     http://www.quantum-espresso.org/quote

     Parallel version (MPI & OpenMP), running on      56 processor cores
     Number of MPI processes:                28
     Threads/MPI process:                     2

     MPI processes distributed on     1 nodes
     K-points division:     npool     =       4
     R & G space division:  proc/nbgrp/npool/nimage =       7
     Waiting for input...
     Reading input from standard input

     Reading xml data from directory:

     ./carbyne.save/
     file C.pbe-n-kjpaw_psl.1.0.0.UPF: wavefunction(s)  2S 2P renormalized

     IMPORTANT: XC functional enforced from input :
     Exchange-correlation= PBE
                           (   1   4   3   4   0   0   0)
     Any further DFT definition will be discarded
     Please, verify this is what you really want

 
     Parallelization info
     --------------------
     sticks:   dense  smooth     PW     G-vecs:    dense   smooth      PW
     Min        8121    3246    967               186828    47197    7639
     Max        8123    3248    969               186829    47198    7640
     Sum       56853   22733   6777              1307799   330385   53475
 

     negative rho (up, down):  5.469E-04 0.000E+00
     Reading collected, re-writing distributed wavefunctions


     Dynamical matrices for ( 1, 1,20)  uniform grid of q-points
     (  11 q-points):
       N         xq(1)         xq(2)         xq(3) 
       1   0.000000000   0.000000000   0.000000000
       2   0.000000000   0.000000000   0.389713829
       3   0.000000000   0.000000000   0.779427659
       4   0.000000000   0.000000000   1.169141488
       5   0.000000000   0.000000000   1.558855317
       6   0.000000000   0.000000000   1.948569146
       7   0.000000000   0.000000000   2.338282976
       8   0.000000000   0.000000000   2.727996805
       9   0.000000000   0.000000000   3.117710634
      10   0.000000000   0.000000000   3.507424463
      11   0.000000000   0.000000000  -3.897138293

     Saving dvscf to file. Distribute only q points, not irreducible represetations.

     Calculation of q =    0.0000000   0.0000000   0.0000000

     phonons calculation                                                        

     bravais-lattice index     =            0
     lattice parameter (alat)  =      37.7945  a.u.
     unit-cell volume          =    6926.4511 (a.u.)^3
     number of atoms/cell      =            2
     number of atomic types    =            1
     kinetic-energy cut-off    =      50.0000  Ry
     charge density cut-off    =     500.0000  Ry
     convergence threshold     =      1.0E-12
     beta                      =       0.7000
     number of iterations used =            4
     Exchange-correlation= PBE
                           (   1   4   3   4   0   0   0)


     celldm(1)=   37.79452  celldm(2)=    0.00000  celldm(3)=    0.00000
     celldm(4)=    0.00000  celldm(5)=    0.00000  celldm(6)=    0.00000

     crystal axes: (cart. coord. in units of alat)
               a(1) = (  1.0000  0.0000  0.0000 )  
               a(2) = (  0.0000  1.0000  0.0000 )  
               a(3) = (  0.0000  0.0000  0.1283 )  

     reciprocal axes: (cart. coord. in units 2 pi/alat)
               b(1) = (  1.0000  0.0000  0.0000 )  
               b(2) = (  0.0000  1.0000  0.0000 )  
               b(3) = (  0.0000  0.0000  7.7943 )  


     Atoms inside the unit cell: 

     Cartesian axes

     site n.  atom      mass           positions (alat units)
        1     C   12.0107   tau(    1) = (    0.50000    0.50000   -0.00010  )
        2     C   12.0107   tau(    2) = (    0.50000    0.50000    0.06259  )

     Computing dynamical matrix for 
                    q = (   0.0000000   0.0000000   0.0000000 )
 
      9 Sym.Ops. (with q -> -q+G )


     G cutoff =18091.2258  ( 186829 G-vectors)     FFT grid: (270,270, 36)
     G cutoff = 7236.4903  (  47198 G-vectors)  smooth grid: (180,180, 24)
     number of k points=    11

     PseudoPot. # 1 for C  read from file:
     ./pseudo/C.pbe-n-kjpaw_psl.1.0.0.UPF
     MD5 check sum: 6fec8efd722f5d988670a8dc528584a2
     Pseudo is Projector augmented-wave + core cor, Zval =  4.0
     Generated using "atomic" code by A. Dal Corso  v.5.1.2
     Shape of augmentation charge: PSQ
     Using radial grid of 1073 points,  4 beta functions with: 
                l(1) =   0
                l(2) =   0
                l(3) =   1
                l(4) =   1
     Q(r) pseudized with 0 coefficients 


     Mode symmetry, C_4v (4mm)  point group:


     Electric field:
     Dielectric constant
     Born effective charges in two ways 


     Atomic displacements:
     There are    4 irreducible representations

     Representation     1      1 modes -  To be done

     Representation     2      1 modes -  To be done

     Representation     3      2 modes -  To be done

     Representation     4      2 modes -  To be done



     Alpha used in Ewald sum =   2.8000

     negative rho (up, down):  5.469E-04 0.000E+00
     PHONON       :     28.36s CPU     20.21s WALL


     Electric Fields Calculation

      iter #   1 total cpu time :    32.8 secs   av.it.:   3.8
      thresh= 1.000E-02 alpha_mix =  0.700 |ddv_scf|^2 =  3.246E-09

      iter #   2 total cpu time :    42.7 secs   av.it.:  11.2
      thresh= 5.697E-06 alpha_mix =  0.700 |ddv_scf|^2 =  2.362E-09

      iter #   3 total cpu time :    52.4 secs   av.it.:  10.6
      thresh= 4.861E-06 alpha_mix =  0.700 |ddv_scf|^2 =  1.042E-09

      iter #   4 total cpu time :    62.3 secs   av.it.:  10.3
      thresh= 3.228E-06 alpha_mix =  0.700 |ddv_scf|^2 =  1.049E-11

      iter #   5 total cpu time :    71.3 secs   av.it.:  11.1
      thresh= 3.239E-07 alpha_mix =  0.700 |ddv_scf|^2 =  5.333E-14

     End of electric fields calculation

          Dielectric constant in cartesian axis 

          (       1.020158047       0.000000000       0.000000000 )
          (       0.000000000       1.020158047       0.000000000 )
          (       0.000000000       0.000000000      27.899412401 )

          Effective charges (d Force / dE) in cartesian axis

           atom      1   C  
      Ex  (        0.01325        0.00000        0.00000 )
      Ey  (        0.00000        0.01325        0.00000 )
      Ez  (        0.00000        0.00000       -1.96295 )
           atom      2   C  
      Ex  (        0.01327        0.00000        0.00000 )
      Ey  (        0.00000        0.01327        0.00000 )
      Ez  (        0.00000        0.00000       -1.96471 )


     Representation #   1 mode #   1

     Self-consistent Calculation

      iter #   1 total cpu time :    86.4 secs   av.it.:   5.9
      thresh= 1.000E-02 alpha_mix =  0.700 |ddv_scf|^2 =  7.470E-09

      iter #   2 total cpu time :    90.6 secs   av.it.:  11.6
      thresh= 8.643E-06 alpha_mix =  0.700 |ddv_scf|^2 =  5.612E-10

      iter #   3 total cpu time :    94.7 secs   av.it.:  12.3
      thresh= 2.369E-06 alpha_mix =  0.700 |ddv_scf|^2 =  3.480E-10

      iter #   4 total cpu time :    98.9 secs   av.it.:  11.8
      thresh= 1.866E-06 alpha_mix =  0.700 |ddv_scf|^2 =  9.295E-11

      iter #   5 total cpu time :   102.8 secs   av.it.:  11.6
      thresh= 9.641E-07 alpha_mix =  0.700 |ddv_scf|^2 =  1.574E-13

     End of self-consistent calculation

     Convergence has been achieved 


     Representation #   2 mode #   2

     Self-consistent Calculation

      iter #   1 total cpu time :   107.7 secs   av.it.:   5.9
      thresh= 1.000E-02 alpha_mix =  0.700 |ddv_scf|^2 =  7.040E-09

      iter #   2 total cpu time :   111.8 secs   av.it.:  11.7
      thresh= 8.390E-06 alpha_mix =  0.700 |ddv_scf|^2 =  6.529E-10

      iter #   3 total cpu time :   115.9 secs   av.it.:  12.2
      thresh= 2.555E-06 alpha_mix =  0.700 |ddv_scf|^2 =  3.211E-10

      iter #   4 total cpu time :   120.2 secs   av.it.:  12.0
      thresh= 1.792E-06 alpha_mix =  0.700 |ddv_scf|^2 =  1.224E-10

      iter #   5 total cpu time :   124.2 secs   av.it.:  11.5
      thresh= 1.107E-06 alpha_mix =  0.700 |ddv_scf|^2 =  7.714E-14

     End of self-consistent calculation

     Convergence has been achieved 


     Representation #   3 modes #   3   4

     Self-consistent Calculation

      iter #   1 total cpu time :   131.6 secs   av.it.:   5.7
      thresh= 1.000E-02 alpha_mix =  0.700 |ddv_scf|^2 =  6.376E-09

      iter #   2 total cpu time :   139.2 secs   av.it.:  11.8
      thresh= 7.985E-06 alpha_mix =  0.700 |ddv_scf|^2 =  1.013E-09

      iter #   3 total cpu time :   147.0 secs   av.it.:  11.3
      thresh= 3.183E-06 alpha_mix =  0.700 |ddv_scf|^2 =  6.287E-11

      iter #   4 total cpu time :   154.0 secs   av.it.:  11.1
      thresh= 7.929E-07 alpha_mix =  0.700 |ddv_scf|^2 =  1.233E-14

     End of self-consistent calculation

     Convergence has been achieved 


     Representation #   4 modes #   5   6

     Self-consistent Calculation

      iter #   1 total cpu time :   162.7 secs   av.it.:   5.7
      thresh= 1.000E-02 alpha_mix =  0.700 |ddv_scf|^2 =  6.629E-09

      iter #   2 total cpu time :   170.2 secs   av.it.:  11.8
      thresh= 8.142E-06 alpha_mix =  0.700 |ddv_scf|^2 =  6.798E-10

      iter #   3 total cpu time :   177.8 secs   av.it.:  11.5
      thresh= 2.607E-06 alpha_mix =  0.700 |ddv_scf|^2 =  5.482E-11

      iter #   4 total cpu time :   184.6 secs   av.it.:  11.1
      thresh= 7.404E-07 alpha_mix =  0.700 |ddv_scf|^2 =  1.404E-14

     End of self-consistent calculation

     Convergence has been achieved 
 
     Number of q in the star =    1
     List of q in the star:
          1   0.000000000   0.000000000   0.000000000

          Dielectric constant in cartesian axis 

          (       1.020158047       0.000000000       0.000000000 )
          (       0.000000000       1.020158047       0.000000000 )
          (       0.000000000       0.000000000      27.899412401 )

          Effective charges (d Force / dE) in cartesian axis

           atom      1   C  
      Ex  (        0.01325        0.00000        0.00000 )
      Ey  (        0.00000        0.01325        0.00000 )
      Ez  (        0.00000        0.00000       -1.96295 )
           atom      2   C  
      Ex  (        0.01327        0.00000        0.00000 )
      Ey  (        0.00000        0.01327        0.00000 )
      Ez  (        0.00000        0.00000       -1.96471 )

          Effective charges (d P / du) in cartesian axis 

           atom      1   C  
      Px  (       -0.00090        0.00000        0.00000 )
      Py  (       -0.00000       -0.00090        0.00000 )
      Pz  (        0.00000        0.00000       -2.75996 )
           atom      2   C  
      Px  (        0.00047        0.00000        0.00000 )
      Py  (        0.00000        0.00047        0.00000 )
      Pz  (        0.00000        0.00000       -1.60942 )

     Diagonalizing the dynamical matrix

     q = (    0.000000000   0.000000000   0.000000000 ) 

 **************************************************************************
     freq (    1) =      -1.715668 [THz] =     -57.228522 [cm-1]
     freq (    2) =      -1.715668 [THz] =     -57.228522 [cm-1]
     freq (    3) =      -1.163965 [THz] =     -38.825707 [cm-1]
     freq (    4) =      14.886525 [THz] =     496.561014 [cm-1]
     freq (    5) =      14.886525 [THz] =     496.561014 [cm-1]
     freq (    6) =      53.764878 [THz] =    1793.403294 [cm-1]
 **************************************************************************

     Mode symmetry, C_4v (4mm)  point group:

     freq (   1-   2) =        -57.2  [cm-1]   --> E    G_5 D_5    I+R
     freq (   3-   3) =        -38.8  [cm-1]   --> A_1  G_1 D_1    I+R
     freq (   4-   5) =        496.6  [cm-1]   --> E    G_5 D_5    I+R
     freq (   6-   6) =       1793.4  [cm-1]   --> A_1  G_1 D_1    I+R

     Calculation of q =    0.0000000   0.0000000   0.3897138

     Subspace diagonalization in iterative solution of the eigenvalue problem:
     one sub-group per band group will be used
     scalapack distributed-memory algorithm (size of sub-group:  2*  2 procs)

 
     Parallelization info
     --------------------
     sticks:   dense  smooth     PW     G-vecs:    dense   smooth      PW
     Min        8121    3246    967               186828    47197    7639
     Max        8123    3248    969               186829    47198    7640
     Sum       56853   22733   6777              1307799   330385   53475
 

     Title: 
     phonons calculation                                                        


     bravais-lattice index     =            0
     lattice parameter (alat)  =      37.7945  a.u.
     unit-cell volume          =    6926.4511 (a.u.)^3
     number of atoms/cell      =            2
     number of atomic types    =            1
     number of electrons       =         8.00
     number of Kohn-Sham states=            8
     kinetic-energy cutoff     =      50.0000  Ry
     charge density cutoff     =     500.0000  Ry
     Exchange-correlation= PBE
                           (   1   4   3   4   0   0   0)

     celldm(1)=  37.794522  celldm(2)=   0.000000  celldm(3)=   0.000000
     celldm(4)=   0.000000  celldm(5)=   0.000000  celldm(6)=   0.000000

     crystal axes: (cart. coord. in units of alat)
               a(1) = (   1.000000   0.000000   0.000000 )  
               a(2) = (   0.000000   1.000000   0.000000 )  
               a(3) = (   0.000000   0.000000   0.128299 )  

     reciprocal axes: (cart. coord. in units 2 pi/alat)
               b(1) = (  1.000000  0.000000  0.000000 )  
               b(2) = (  0.000000  1.000000  0.000000 )  
               b(3) = (  0.000000  0.000000  7.794277 )  


     PseudoPot. # 1 for C  read from file:
     ./pseudo/C.pbe-n-kjpaw_psl.1.0.0.UPF
     MD5 check sum: 6fec8efd722f5d988670a8dc528584a2
     Pseudo is Projector augmented-wave + core cor, Zval =  4.0
     Generated using "atomic" code by A. Dal Corso  v.5.1.2
     Shape of augmentation charge: PSQ
     Using radial grid of 1073 points,  4 beta functions with: 
                l(1) =   0
                l(2) =   0
                l(3) =   1
                l(4) =   1
     Q(r) pseudized with 0 coefficients 


     atomic species   valence    mass     pseudopotential
        C              4.00    12.01070     C ( 1.00)

      8 Sym. Ops. (no inversion) found



   Cartesian axes

     site n.     atom                  positions (alat units)
         1           C   tau(   1) = (   0.5000000   0.5000000  -0.0000988  )
         2           C   tau(   2) = (   0.5000000   0.5000000   0.0625851  )

     number of k points=    40
                       cart. coord. in units 2pi/alat
        k(    1) = (   0.0000000   0.0000000   0.0000000), wk =   0.1000000
        k(    2) = (   0.0000000   0.0000000   0.3897138), wk =   0.0000000
        k(    3) = (   0.0000000   0.0000000   0.3897138), wk =   0.1000000
        k(    4) = (   0.0000000   0.0000000   0.7794277), wk =   0.0000000
        k(    5) = (   0.0000000   0.0000000   0.7794277), wk =   0.1000000
        k(    6) = (   0.0000000   0.0000000   1.1691415), wk =   0.0000000
        k(    7) = (   0.0000000   0.0000000   1.1691415), wk =   0.1000000
        k(    8) = (   0.0000000   0.0000000   1.5588553), wk =   0.0000000
        k(    9) = (   0.0000000   0.0000000   1.5588553), wk =   0.1000000
        k(   10) = (   0.0000000   0.0000000   1.9485691), wk =   0.0000000
        k(   11) = (   0.0000000   0.0000000   1.9485691), wk =   0.1000000
        k(   12) = (   0.0000000   0.0000000   2.3382830), wk =   0.0000000
        k(   13) = (   0.0000000   0.0000000   2.3382830), wk =   0.1000000
        k(   14) = (   0.0000000   0.0000000   2.7279968), wk =   0.0000000
        k(   15) = (   0.0000000   0.0000000   2.7279968), wk =   0.1000000
        k(   16) = (   0.0000000   0.0000000   3.1177106), wk =   0.0000000
        k(   17) = (   0.0000000   0.0000000   3.1177106), wk =   0.1000000
        k(   18) = (   0.0000000   0.0000000   3.5074245), wk =   0.0000000
        k(   19) = (   0.0000000   0.0000000   3.5074245), wk =   0.1000000
        k(   20) = (   0.0000000   0.0000000   3.8971383), wk =   0.0000000
        k(   21) = (   0.0000000   0.0000000  -3.8971383), wk =   0.1000000
        k(   22) = (   0.0000000   0.0000000  -3.5074245), wk =   0.0000000
        k(   23) = (   0.0000000   0.0000000  -0.3897138), wk =   0.1000000
        k(   24) = (   0.0000000   0.0000000   0.0000000), wk =   0.0000000
        k(   25) = (   0.0000000   0.0000000  -0.7794277), wk =   0.1000000
        k(   26) = (   0.0000000   0.0000000  -0.3897138), wk =   0.0000000
        k(   27) = (   0.0000000   0.0000000  -1.1691415), wk =   0.1000000
        k(   28) = (   0.0000000   0.0000000  -0.7794277), wk =   0.0000000
        k(   29) = (   0.0000000   0.0000000  -1.5588553), wk =   0.1000000
        k(   30) = (   0.0000000   0.0000000  -1.1691415), wk =   0.0000000
        k(   31) = (   0.0000000   0.0000000  -1.9485691), wk =   0.1000000
        k(   32) = (   0.0000000   0.0000000  -1.5588553), wk =   0.0000000
        k(   33) = (   0.0000000   0.0000000  -2.3382830), wk =   0.1000000
        k(   34) = (   0.0000000   0.0000000  -1.9485691), wk =   0.0000000
        k(   35) = (   0.0000000   0.0000000  -2.7279968), wk =   0.1000000
        k(   36) = (   0.0000000   0.0000000  -2.3382830), wk =   0.0000000
        k(   37) = (   0.0000000   0.0000000  -3.1177106), wk =   0.1000000
        k(   38) = (   0.0000000   0.0000000  -2.7279968), wk =   0.0000000
        k(   39) = (   0.0000000   0.0000000  -3.5074245), wk =   0.1000000
        k(   40) = (   0.0000000   0.0000000  -3.1177106), wk =   0.0000000

     Dense  grid:  1307799 G-vectors     FFT dimensions: ( 270, 270,  36)

     Smooth grid:   330385 G-vectors     FFT dimensions: ( 180, 180,  24)

     Estimated max dynamical RAM per process >      92.10 MB

     Estimated total dynamical RAM >       2.52 GB

     The potential is recalculated from file :
     ./_ph0/carbyne.q_2/carbyne.save/charge-density


     negative rho (up, down):  5.469E-04 0.000E+00
     Starting wfcs are    8 atomic wfcs
     Checking if some PAW data can be deallocated... 

     Band Structure Calculation
     Davidson diagonalization with overlap

     ethr =  1.25E-10,  avg # of iterations = 39.4

     total cpu time spent up to now is       17.9 secs

     End of band structure calculation

          k = 0.0000 0.0000 0.0000 ( 41563 PWs)   bands (ev):

   -21.2595 -14.0554 -10.3185 -10.3185  -0.5158   0.0857   0.1863   0.1863

          k = 0.0000 0.0000 0.3897 ( 41519 PWs)   bands (ev):

   -21.2273 -14.1234 -10.2646 -10.2646  -0.4612   0.1424   0.2433   0.2433

          k = 0.0000 0.0000 0.3897 ( 41519 PWs)   bands (ev):

   -21.2273 -14.1234 -10.2646 -10.2646  -0.4612   0.1424   0.2433   0.2433

          k = 0.0000 0.0000 0.7794 ( 41483 PWs)   bands (ev):

   -21.1307 -14.3219 -10.1030 -10.1030  -0.2976   0.3126   0.4144   0.4144

          k = 0.0000 0.0000 0.7794 ( 41483 PWs)   bands (ev):

   -21.1307 -14.3219 -10.1030 -10.1030  -0.2976   0.3126   0.4144   0.4144

          k = 0.0000 0.0000 1.1691 ( 41499 PWs)   bands (ev):

   -20.9708 -14.6360  -9.8340  -9.8340  -0.0253   0.5963   0.6994   0.6994

          k = 0.0000 0.0000 1.1691 ( 41499 PWs)   bands (ev):

   -20.9708 -14.6360  -9.8340  -9.8340  -0.0253   0.5963   0.6994   0.6994

          k = 0.0000 0.0000 1.5589 ( 41455 PWs)   bands (ev):

   -20.7490 -15.0448  -9.4580  -9.4580   0.3545   0.9934   1.0983   1.0983

          k = 0.0000 0.0000 1.5589 ( 41455 PWs)   bands (ev):

   -20.7490 -15.0448  -9.4580  -9.4580   0.3545   0.9934   1.0983   1.0983

          k = 0.0000 0.0000 1.9486 ( 41391 PWs)   bands (ev):

   -20.4677 -15.5249  -8.9758  -8.9758   0.8405   1.1923   1.1923   1.5038

          k = 0.0000 0.0000 1.9486 ( 41391 PWs)   bands (ev):

   -20.4677 -15.5249  -8.9758  -8.9758   0.8405   1.1923   1.1923   1.5038

          k = 0.0000 0.0000 2.3383 ( 41355 PWs)   bands (ev):

   -20.1299 -16.0534  -8.3885  -8.3885  -0.1626  -0.1626   1.4298   2.1275

          k = 0.0000 0.0000 2.3383 ( 41355 PWs)   bands (ev):

   -20.1299 -16.0534  -8.3885  -8.3885  -0.1626  -0.1626   1.4298   2.1275

          k = 0.0000 0.0000 2.7280 ( 41327 PWs)   bands (ev):

   -19.7395 -16.6094  -7.6978  -7.6978  -1.4758  -1.4758   2.1180   2.8643

          k = 0.0000 0.0000 2.7280 ( 41327 PWs)   bands (ev):

   -19.7395 -16.6094  -7.6978  -7.6978  -1.4758  -1.4758   2.1180   2.8643

          k = 0.0000 0.0000 3.1177 ( 41207 PWs)   bands (ev):

   -19.3019 -17.1745  -6.9072  -6.9072  -2.7223  -2.7223   2.8966   3.7139

          k = 0.0000 0.0000 3.1177 ( 41207 PWs)   bands (ev):

   -19.3019 -17.1745  -6.9072  -6.9072  -2.7223  -2.7223   2.8966   3.7139

          k = 0.0000 0.0000 3.5074 ( 41035 PWs)   bands (ev):

   -18.8269 -17.7296  -6.0266  -6.0266  -3.8804  -3.8804   3.7481   4.6755

          k = 0.0000 0.0000 3.5074 ( 41035 PWs)   bands (ev):

   -18.8269 -17.7296  -6.0266  -6.0266  -3.8804  -3.8804   3.7481   4.6755

          k = 0.0000 0.0000 3.8971 ( 41050 PWs)   bands (ev):

   -18.4245 -18.1593  -5.2621  -5.2621  -4.7380  -4.7380   4.5568   4.7319

          k = 0.0000 0.0000-3.8971 ( 41050 PWs)   bands (ev):

   -18.4245 -18.1593  -5.2621  -5.2621  -4.7380  -4.7380   4.5568   4.7319

          k = 0.0000 0.0000-3.5074 ( 41035 PWs)   bands (ev):

   -18.8269 -17.7296  -6.0266  -6.0266  -3.8804  -3.8804   3.7481   4.6755

          k = 0.0000 0.0000-0.3897 ( 41519 PWs)   bands (ev):

   -21.2273 -14.1234 -10.2646 -10.2646  -0.4612   0.1424   0.2433   0.2433

          k = 0.0000 0.0000 0.0000 ( 41563 PWs)   bands (ev):

   -21.2595 -14.0554 -10.3185 -10.3185  -0.5158   0.0857   0.1863   0.1863

          k = 0.0000 0.0000-0.7794 ( 41483 PWs)   bands (ev):

   -21.1307 -14.3219 -10.1030 -10.1030  -0.2976   0.3126   0.4144   0.4144

          k = 0.0000 0.0000-0.3897 ( 41519 PWs)   bands (ev):

   -21.2273 -14.1234 -10.2646 -10.2646  -0.4612   0.1424   0.2433   0.2433

          k = 0.0000 0.0000-1.1691 ( 41499 PWs)   bands (ev):

   -20.9708 -14.6360  -9.8340  -9.8340  -0.0253   0.5963   0.6994   0.6994

          k = 0.0000 0.0000-0.7794 ( 41483 PWs)   bands (ev):

   -21.1307 -14.3219 -10.1030 -10.1030  -0.2976   0.3126   0.4144   0.4144

          k = 0.0000 0.0000-1.5589 ( 41455 PWs)   bands (ev):

   -20.7490 -15.0448  -9.4580  -9.4580   0.3545   0.9934   1.0983   1.0983

          k = 0.0000 0.0000-1.1691 ( 41499 PWs)   bands (ev):

   -20.9708 -14.6360  -9.8340  -9.8340  -0.0253   0.5963   0.6994   0.6994

          k = 0.0000 0.0000-1.9486 ( 41391 PWs)   bands (ev):

   -20.4677 -15.5249  -8.9758  -8.9758   0.8405   1.1923   1.1923   1.5038

          k = 0.0000 0.0000-1.5589 ( 41455 PWs)   bands (ev):

   -20.7490 -15.0448  -9.4580  -9.4580   0.3545   0.9934   1.0983   1.0983

          k = 0.0000 0.0000-2.3383 ( 41355 PWs)   bands (ev):

   -20.1299 -16.0534  -8.3885  -8.3885  -0.1626  -0.1626   1.4298   2.1275

          k = 0.0000 0.0000-1.9486 ( 41391 PWs)   bands (ev):

   -20.4677 -15.5249  -8.9758  -8.9758   0.8405   1.1923   1.1923   1.5038

          k = 0.0000 0.0000-2.7280 ( 41327 PWs)   bands (ev):

   -19.7395 -16.6094  -7.6978  -7.6978  -1.4758  -1.4758   2.1180   2.8643

          k = 0.0000 0.0000-2.3383 ( 41355 PWs)   bands (ev):

   -20.1299 -16.0534  -8.3885  -8.3885  -0.1626  -0.1626   1.4298   2.1275

          k = 0.0000 0.0000-3.1177 ( 41207 PWs)   bands (ev):

   -19.3019 -17.1745  -6.9072  -6.9072  -2.7223  -2.7223   2.8966   3.7139

          k = 0.0000 0.0000-2.7280 ( 41327 PWs)   bands (ev):

   -19.7395 -16.6094  -7.6978  -7.6978  -1.4758  -1.4758   2.1180   2.8643

          k = 0.0000 0.0000-3.5074 ( 41035 PWs)   bands (ev):

   -18.8269 -17.7296  -6.0266  -6.0266  -3.8804  -3.8804   3.7481   4.6755

          k = 0.0000 0.0000-3.1177 ( 41207 PWs)   bands (ev):

   -19.3019 -17.1745  -6.9072  -6.9072  -2.7223  -2.7223   2.8966   3.7139

     highest occupied, lowest unoccupied level (ev):    -5.2621   -4.7380

     Writing output data file ./_ph0/carbyne.q_2/carbyne.save/

     phonons calculation                                                        

     bravais-lattice index     =            0
     lattice parameter (alat)  =      37.7945  a.u.
     unit-cell volume          =    6926.4511 (a.u.)^3
     number of atoms/cell      =            2
     number of atomic types    =            1
     kinetic-energy cut-off    =      50.0000  Ry
     charge density cut-off    =     500.0000  Ry
     convergence threshold     =      1.0E-12
     beta                      =       0.7000
     number of iterations used =            4
     Exchange-correlation= PBE
                           (   1   4   3   4   0   0   0)


     celldm(1)=   37.79452  celldm(2)=    0.00000  celldm(3)=    0.00000
     celldm(4)=    0.00000  celldm(5)=    0.00000  celldm(6)=    0.00000

     crystal axes: (cart. coord. in units of alat)
               a(1) = (  1.0000  0.0000  0.0000 )  
               a(2) = (  0.0000  1.0000  0.0000 )  
               a(3) = (  0.0000  0.0000  0.1283 )  

     reciprocal axes: (cart. coord. in units 2 pi/alat)
               b(1) = (  1.0000  0.0000  0.0000 )  
               b(2) = (  0.0000  1.0000  0.0000 )  
               b(3) = (  0.0000  0.0000  7.7943 )  


     Atoms inside the unit cell: 

     Cartesian axes

     site n.  atom      mass           positions (alat units)
        1     C   12.0107   tau(    1) = (    0.50000    0.50000   -0.00010  )
        2     C   12.0107   tau(    2) = (    0.50000    0.50000    0.06259  )

     Computing dynamical matrix for 
                    q = (   0.0000000   0.0000000   0.3897138 )
 
      8 Sym.Ops. (no q -> -q+G )


     G cutoff =18091.2258  ( 186829 G-vectors)     FFT grid: (270,270, 36)
     G cutoff = 7236.4903  (  47198 G-vectors)  smooth grid: (180,180, 24)
     number of k points=    40

     PseudoPot. # 1 for C  read from file:
     ./pseudo/C.pbe-n-kjpaw_psl.1.0.0.UPF
     MD5 check sum: 6fec8efd722f5d988670a8dc528584a2
     Pseudo is Projector augmented-wave + core cor, Zval =  4.0
     Generated using "atomic" code by A. Dal Corso  v.5.1.2
     Shape of augmentation charge: PSQ
     Using radial grid of 1073 points,  4 beta functions with: 
                l(1) =   0
                l(2) =   0
                l(3) =   1
                l(4) =   1
     Q(r) pseudized with 0 coefficients 


     Mode symmetry, C_4v (4mm)  point group:


     Atomic displacements:
     There are    4 irreducible representations

     Representation     1      1 modes -  To be done

     Representation     2      1 modes -  To be done

     Representation     3      2 modes -  To be done

     Representation     4      2 modes -  To be done



     Alpha used in Ewald sum =   2.8000

     negative rho (up, down):  5.469E-04 0.000E+00
     PHONON       :   6m10.44s CPU   3m41.81s WALL



     Representation #   1 mode #   1

     Self-consistent Calculation

      iter #   1 total cpu time :   225.9 secs   av.it.:   5.8
      thresh= 1.000E-02 alpha_mix =  0.700 |ddv_scf|^2 =  3.039E-07

      iter #   2 total cpu time :   230.6 secs   av.it.:  10.8
      thresh= 5.513E-05 alpha_mix =  0.700 |ddv_scf|^2 =  7.864E-06

      iter #   3 total cpu time :   235.6 secs   av.it.:   8.4
      thresh= 2.804E-04 alpha_mix =  0.700 |ddv_scf|^2 =  1.128E-09

      iter #   4 total cpu time :   240.7 secs   av.it.:  11.4
      thresh= 3.359E-06 alpha_mix =  0.700 |ddv_scf|^2 =  7.877E-10

      iter #   5 total cpu time :   245.6 secs   av.it.:  10.8
      thresh= 2.807E-06 alpha_mix =  0.700 |ddv_scf|^2 =  7.136E-12

      iter #   6 total cpu time :   250.3 secs   av.it.:  11.7
      thresh= 2.671E-07 alpha_mix =  0.700 |ddv_scf|^2 =  7.952E-13

     End of self-consistent calculation

     Convergence has been achieved 


     Representation #   2 mode #   2

     Self-consistent Calculation

      iter #   1 total cpu time :   255.8 secs   av.it.:   5.8
      thresh= 1.000E-02 alpha_mix =  0.700 |ddv_scf|^2 =  3.028E-07

      iter #   2 total cpu time :   260.8 secs   av.it.:  10.8
      thresh= 5.502E-05 alpha_mix =  0.700 |ddv_scf|^2 =  7.860E-06

      iter #   3 total cpu time :   265.3 secs   av.it.:   8.4
      thresh= 2.804E-04 alpha_mix =  0.700 |ddv_scf|^2 =  1.173E-09

      iter #   4 total cpu time :   270.3 secs   av.it.:  11.4
      thresh= 3.425E-06 alpha_mix =  0.700 |ddv_scf|^2 =  7.756E-10

      iter #   5 total cpu time :   275.3 secs   av.it.:  10.8
      thresh= 2.785E-06 alpha_mix =  0.700 |ddv_scf|^2 =  5.943E-12

      iter #   6 total cpu time :   280.3 secs   av.it.:  11.8
      thresh= 2.438E-07 alpha_mix =  0.700 |ddv_scf|^2 =  7.622E-13

     End of self-consistent calculation

     Convergence has been achieved 


     Representation #   3 modes #   3   4

     Self-consistent Calculation

      iter #   1 total cpu time :   288.5 secs   av.it.:   5.7
      thresh= 1.000E-02 alpha_mix =  0.700 |ddv_scf|^2 =  5.939E-09

      iter #   2 total cpu time :   297.5 secs   av.it.:  11.8
      thresh= 7.706E-06 alpha_mix =  0.700 |ddv_scf|^2 =  8.952E-10

      iter #   3 total cpu time :   306.7 secs   av.it.:  11.4
      thresh= 2.992E-06 alpha_mix =  0.700 |ddv_scf|^2 =  5.700E-11

      iter #   4 total cpu time :   315.7 secs   av.it.:  11.2
      thresh= 7.550E-07 alpha_mix =  0.700 |ddv_scf|^2 =  1.028E-14

     End of self-consistent calculation

     Convergence has been achieved 


     Representation #   4 modes #   5   6

     Self-consistent Calculation

      iter #   1 total cpu time :   325.2 secs   av.it.:   5.7
      thresh= 1.000E-02 alpha_mix =  0.700 |ddv_scf|^2 =  6.148E-09

      iter #   2 total cpu time :   334.1 secs   av.it.:  11.8
      thresh= 7.841E-06 alpha_mix =  0.700 |ddv_scf|^2 =  5.814E-10

      iter #   3 total cpu time :   343.1 secs   av.it.:  11.7
      thresh= 2.411E-06 alpha_mix =  0.700 |ddv_scf|^2 =  5.163E-11

      iter #   4 total cpu time :   352.0 secs   av.it.:  11.2
      thresh= 7.185E-07 alpha_mix =  0.700 |ddv_scf|^2 =  1.032E-14

     End of self-consistent calculation

     Convergence has been achieved 
 
     Number of q in the star =    1
     List of q in the star:
          1   0.000000000   0.000000000   0.389713829
     In addition there is the -q list: 
          1   0.000000000   0.000000000  -0.389713829

     Diagonalizing the dynamical matrix

     q = (    0.000000000   0.000000000   0.389713829 ) 

 **************************************************************************
     freq (    1) =      -1.018928 [THz] =     -33.987782 [cm-1]
     freq (    2) =      -1.018928 [THz] =     -33.987782 [cm-1]
     freq (    3) =       5.801006 [THz] =     193.500737 [cm-1]
     freq (    4) =      14.877818 [THz] =     496.270604 [cm-1]
     freq (    5) =      14.877818 [THz] =     496.270604 [cm-1]
     freq (    6) =      53.635243 [THz] =    1789.079120 [cm-1]
 **************************************************************************

     Mode symmetry, C_4v (4mm)  point group:

     freq (   1-   2) =        -34.0  [cm-1]   --> E    G_5 D_5       
     freq (   3-   3) =        193.5  [cm-1]   --> A_1  G_1 D_1       
     freq (   4-   5) =        496.3  [cm-1]   --> E    G_5 D_5       
     freq (   6-   6) =       1789.1  [cm-1]   --> A_1  G_1 D_1       

     Calculation of q =    0.0000000   0.0000000   0.7794277
 
     Parallelization info
     --------------------
     sticks:   dense  smooth     PW     G-vecs:    dense   smooth      PW
     Min        8121    3246    981               186828    47197    7831
     Max        8123    3248    983               186829    47198    7831
     Sum       56853   22733   6877              1307799   330385   54817
 

     Title: 
     phonons calculation                                                        


     bravais-lattice index     =            0
     lattice parameter (alat)  =      37.7945  a.u.
     unit-cell volume          =    6926.4511 (a.u.)^3
     number of atoms/cell      =            2
     number of atomic types    =            1
     number of electrons       =         8.00
     number of Kohn-Sham states=            8
     kinetic-energy cutoff     =      50.0000  Ry
     charge density cutoff     =     500.0000  Ry
     Exchange-correlation= PBE
                           (   1   4   3   4   0   0   0)

     celldm(1)=  37.794522  celldm(2)=   0.000000  celldm(3)=   0.000000
     celldm(4)=   0.000000  celldm(5)=   0.000000  celldm(6)=   0.000000

     crystal axes: (cart. coord. in units of alat)
               a(1) = (   1.000000   0.000000   0.000000 )  
               a(2) = (   0.000000   1.000000   0.000000 )  
               a(3) = (   0.000000   0.000000   0.128299 )  

     reciprocal axes: (cart. coord. in units 2 pi/alat)
               b(1) = (  1.000000  0.000000  0.000000 )  
               b(2) = (  0.000000  1.000000  0.000000 )  
               b(3) = (  0.000000  0.000000  7.794277 )  


     PseudoPot. # 1 for C  read from file:
     ./pseudo/C.pbe-n-kjpaw_psl.1.0.0.UPF
     MD5 check sum: 6fec8efd722f5d988670a8dc528584a2
     Pseudo is Projector augmented-wave + core cor, Zval =  4.0
     Generated using "atomic" code by A. Dal Corso  v.5.1.2
     Shape of augmentation charge: PSQ
     Using radial grid of 1073 points,  4 beta functions with: 
                l(1) =   0
                l(2) =   0
                l(3) =   1
                l(4) =   1
     Q(r) pseudized with 0 coefficients 


     atomic species   valence    mass     pseudopotential
        C              4.00    12.01070     C ( 1.00)

      8 Sym. Ops. (no inversion) found



   Cartesian axes

     site n.     atom                  positions (alat units)
         1           C   tau(   1) = (   0.5000000   0.5000000  -0.0000988  )
         2           C   tau(   2) = (   0.5000000   0.5000000   0.0625851  )

     number of k points=    40
                       cart. coord. in units 2pi/alat
        k(    1) = (   0.0000000   0.0000000   0.0000000), wk =   0.1000000
        k(    2) = (   0.0000000   0.0000000   0.7794277), wk =   0.0000000
        k(    3) = (   0.0000000   0.0000000   0.3897138), wk =   0.1000000
        k(    4) = (   0.0000000   0.0000000   1.1691415), wk =   0.0000000
        k(    5) = (   0.0000000   0.0000000   0.7794277), wk =   0.1000000
        k(    6) = (   0.0000000   0.0000000   1.5588553), wk =   0.0000000
        k(    7) = (   0.0000000   0.0000000   1.1691415), wk =   0.1000000
        k(    8) = (   0.0000000   0.0000000   1.9485691), wk =   0.0000000
        k(    9) = (   0.0000000   0.0000000   1.5588553), wk =   0.1000000
        k(   10) = (   0.0000000   0.0000000   2.3382830), wk =   0.0000000
        k(   11) = (   0.0000000   0.0000000   1.9485691), wk =   0.1000000
        k(   12) = (   0.0000000   0.0000000   2.7279968), wk =   0.0000000
        k(   13) = (   0.0000000   0.0000000   2.3382830), wk =   0.1000000
        k(   14) = (   0.0000000   0.0000000   3.1177106), wk =   0.0000000
        k(   15) = (   0.0000000   0.0000000   2.7279968), wk =   0.1000000
        k(   16) = (   0.0000000   0.0000000   3.5074245), wk =   0.0000000
        k(   17) = (   0.0000000   0.0000000   3.1177106), wk =   0.1000000
        k(   18) = (   0.0000000   0.0000000   3.8971383), wk =   0.0000000
        k(   19) = (   0.0000000   0.0000000   3.5074245), wk =   0.1000000
        k(   20) = (   0.0000000   0.0000000   4.2868521), wk =   0.0000000
        k(   21) = (   0.0000000   0.0000000  -3.8971383), wk =   0.1000000
        k(   22) = (   0.0000000   0.0000000  -3.1177106), wk =   0.0000000
        k(   23) = (   0.0000000   0.0000000  -0.3897138), wk =   0.1000000
        k(   24) = (   0.0000000   0.0000000   0.3897138), wk =   0.0000000
        k(   25) = (   0.0000000   0.0000000  -0.7794277), wk =   0.1000000
        k(   26) = (   0.0000000   0.0000000   0.0000000), wk =   0.0000000
        k(   27) = (   0.0000000   0.0000000  -1.1691415), wk =   0.1000000
        k(   28) = (   0.0000000   0.0000000  -0.3897138), wk =   0.0000000
        k(   29) = (   0.0000000   0.0000000  -1.5588553), wk =   0.1000000
        k(   30) = (   0.0000000   0.0000000  -0.7794277), wk =   0.0000000
        k(   31) = (   0.0000000   0.0000000  -1.9485691), wk =   0.1000000
        k(   32) = (   0.0000000   0.0000000  -1.1691415), wk =   0.0000000
        k(   33) = (   0.0000000   0.0000000  -2.3382830), wk =   0.1000000
        k(   34) = (   0.0000000   0.0000000  -1.5588553), wk =   0.0000000
        k(   35) = (   0.0000000   0.0000000  -2.7279968), wk =   0.1000000
        k(   36) = (   0.0000000   0.0000000  -1.9485691), wk =   0.0000000
        k(   37) = (   0.0000000   0.0000000  -3.1177106), wk =   0.1000000
        k(   38) = (   0.0000000   0.0000000  -2.3382830), wk =   0.0000000
        k(   39) = (   0.0000000   0.0000000  -3.5074245), wk =   0.1000000
        k(   40) = (   0.0000000   0.0000000  -2.7279968), wk =   0.0000000

     Dense  grid:  1307799 G-vectors     FFT dimensions: ( 270, 270,  36)

     Smooth grid:   330385 G-vectors     FFT dimensions: ( 180, 180,  24)

     Estimated max dynamical RAM per process >      92.10 MB

     Estimated total dynamical RAM >       2.52 GB

     The potential is recalculated from file :
     ./_ph0/carbyne.q_3/carbyne.save/charge-density


     negative rho (up, down):  5.469E-04 0.000E+00
     Starting wfcs are    8 atomic wfcs
     Checking if some PAW data can be deallocated... 

     Band Structure Calculation
     Davidson diagonalization with overlap

     ethr =  1.25E-10,  avg # of iterations = 39.4

     total cpu time spent up to now is       36.2 secs

     End of band structure calculation

          k = 0.0000 0.0000 0.0000 ( 41563 PWs)   bands (ev):

   -21.2595 -14.0554 -10.3185 -10.3185  -0.5158   0.0857   0.1863   0.1863

          k = 0.0000 0.0000 0.7794 ( 41483 PWs)   bands (ev):

   -21.1307 -14.3219 -10.1030 -10.1030  -0.2976   0.3126   0.4144   0.4144

          k = 0.0000 0.0000 0.3897 ( 41519 PWs)   bands (ev):

   -21.2273 -14.1234 -10.2646 -10.2646  -0.4612   0.1424   0.2433   0.2433

          k = 0.0000 0.0000 1.1691 ( 41499 PWs)   bands (ev):

   -20.9708 -14.6360  -9.8340  -9.8340  -0.0253   0.5963   0.6994   0.6994

          k = 0.0000 0.0000 0.7794 ( 41483 PWs)   bands (ev):

   -21.1307 -14.3219 -10.1030 -10.1030  -0.2976   0.3126   0.4144   0.4144

          k = 0.0000 0.0000 1.5589 ( 41455 PWs)   bands (ev):

   -20.7490 -15.0448  -9.4580  -9.4580   0.3545   0.9934   1.0983   1.0983

          k = 0.0000 0.0000 1.1691 ( 41499 PWs)   bands (ev):

   -20.9708 -14.6360  -9.8340  -9.8340  -0.0253   0.5963   0.6994   0.6994

          k = 0.0000 0.0000 1.9486 ( 41391 PWs)   bands (ev):

   -20.4677 -15.5249  -8.9758  -8.9758   0.8405   1.1923   1.1923   1.5038

          k = 0.0000 0.0000 1.5589 ( 41455 PWs)   bands (ev):

   -20.7490 -15.0448  -9.4580  -9.4580   0.3545   0.9934   1.0983   1.0983

          k = 0.0000 0.0000 2.3383 ( 41355 PWs)   bands (ev):

   -20.1299 -16.0534  -8.3885  -8.3885  -0.1626  -0.1626   1.4298   2.1275

          k = 0.0000 0.0000 1.9486 ( 41391 PWs)   bands (ev):

   -20.4677 -15.5249  -8.9758  -8.9758   0.8405   1.1923   1.1923   1.5038

          k = 0.0000 0.0000 2.7280 ( 41327 PWs)   bands (ev):

   -19.7395 -16.6094  -7.6978  -7.6978  -1.4758  -1.4758   2.1180   2.8643

          k = 0.0000 0.0000 2.3383 ( 41355 PWs)   bands (ev):

   -20.1299 -16.0534  -8.3885  -8.3885  -0.1626  -0.1626   1.4298   2.1275

          k = 0.0000 0.0000 3.1177 ( 41207 PWs)   bands (ev):

   -19.3019 -17.1745  -6.9072  -6.9072  -2.7223  -2.7223   2.8966   3.7139

          k = 0.0000 0.0000 2.7280 ( 41327 PWs)   bands (ev):

   -19.7395 -16.6094  -7.6978  -7.6978  -1.4758  -1.4758   2.1180   2.8643

          k = 0.0000 0.0000 3.5074 ( 41035 PWs)   bands (ev):

   -18.8269 -17.7296  -6.0266  -6.0266  -3.8804  -3.8804   3.7481   4.6755

          k = 0.0000 0.0000 3.1177 ( 41207 PWs)   bands (ev):

   -19.3019 -17.1745  -6.9072  -6.9072  -2.7223  -2.7223   2.8966   3.7139

          k = 0.0000 0.0000 3.8971 ( 41050 PWs)   bands (ev):

   -18.4245 -18.1593  -5.2621  -5.2621  -4.7380  -4.7380   4.5568   4.7319

          k = 0.0000 0.0000 3.5074 ( 41035 PWs)   bands (ev):

   -18.8269 -17.7296  -6.0266  -6.0266  -3.8804  -3.8804   3.7481   4.6755

          k = 0.0000 0.0000 4.2869 ( 41035 PWs)   bands (ev):

   -18.8269 -17.7296  -6.0266  -6.0266  -3.8804  -3.8804   3.7481   4.6755

          k = 0.0000 0.0000-3.8971 ( 41050 PWs)   bands (ev):

   -18.4245 -18.1593  -5.2621  -5.2621  -4.7380  -4.7380   4.5568   4.7319

          k = 0.0000 0.0000-3.1177 ( 41207 PWs)   bands (ev):

   -19.3019 -17.1745  -6.9072  -6.9072  -2.7223  -2.7223   2.8966   3.7139

          k = 0.0000 0.0000-0.3897 ( 41519 PWs)   bands (ev):

   -21.2273 -14.1234 -10.2646 -10.2646  -0.4612   0.1424   0.2433   0.2433

          k = 0.0000 0.0000 0.3897 ( 41519 PWs)   bands (ev):

   -21.2273 -14.1234 -10.2646 -10.2646  -0.4612   0.1424   0.2433   0.2433

          k = 0.0000 0.0000-0.7794 ( 41483 PWs)   bands (ev):

   -21.1307 -14.3219 -10.1030 -10.1030  -0.2976   0.3126   0.4144   0.4144

          k = 0.0000 0.0000 0.0000 ( 41563 PWs)   bands (ev):

   -21.2595 -14.0554 -10.3185 -10.3185  -0.5158   0.0857   0.1863   0.1863

          k = 0.0000 0.0000-1.1691 ( 41499 PWs)   bands (ev):

   -20.9708 -14.6360  -9.8340  -9.8340  -0.0253   0.5963   0.6994   0.6994

          k = 0.0000 0.0000-0.3897 ( 41519 PWs)   bands (ev):

   -21.2273 -14.1234 -10.2646 -10.2646  -0.4612   0.1424   0.2433   0.2433

          k = 0.0000 0.0000-1.5589 ( 41455 PWs)   bands (ev):

   -20.7490 -15.0448  -9.4580  -9.4580   0.3545   0.9934   1.0983   1.0983

          k = 0.0000 0.0000-0.7794 ( 41483 PWs)   bands (ev):

   -21.1307 -14.3219 -10.1030 -10.1030  -0.2976   0.3126   0.4144   0.4144

          k = 0.0000 0.0000-1.9486 ( 41391 PWs)   bands (ev):

   -20.4677 -15.5249  -8.9758  -8.9758   0.8405   1.1923   1.1923   1.5038

          k = 0.0000 0.0000-1.1691 ( 41499 PWs)   bands (ev):

   -20.9708 -14.6360  -9.8340  -9.8340  -0.0253   0.5963   0.6994   0.6994

          k = 0.0000 0.0000-2.3383 ( 41355 PWs)   bands (ev):

   -20.1299 -16.0534  -8.3885  -8.3885  -0.1626  -0.1626   1.4298   2.1275

          k = 0.0000 0.0000-1.5589 ( 41455 PWs)   bands (ev):

   -20.7490 -15.0448  -9.4580  -9.4580   0.3545   0.9934   1.0983   1.0983

          k = 0.0000 0.0000-2.7280 ( 41327 PWs)   bands (ev):

   -19.7395 -16.6094  -7.6978  -7.6978  -1.4758  -1.4758   2.1180   2.8643

          k = 0.0000 0.0000-1.9486 ( 41391 PWs)   bands (ev):

   -20.4677 -15.5249  -8.9758  -8.9758   0.8405   1.1923   1.1923   1.5038

          k = 0.0000 0.0000-3.1177 ( 41207 PWs)   bands (ev):

   -19.3019 -17.1745  -6.9072  -6.9072  -2.7223  -2.7223   2.8966   3.7139

          k = 0.0000 0.0000-2.3383 ( 41355 PWs)   bands (ev):

   -20.1299 -16.0534  -8.3885  -8.3885  -0.1626  -0.1626   1.4298   2.1275

          k = 0.0000 0.0000-3.5074 ( 41035 PWs)   bands (ev):

   -18.8269 -17.7296  -6.0266  -6.0266  -3.8804  -3.8804   3.7481   4.6755

          k = 0.0000 0.0000-2.7280 ( 41327 PWs)   bands (ev):

   -19.7395 -16.6094  -7.6978  -7.6978  -1.4758  -1.4758   2.1180   2.8643

     highest occupied, lowest unoccupied level (ev):    -5.2621   -4.7380

     Writing output data file ./_ph0/carbyne.q_3/carbyne.save/

     phonons calculation                                                        

     bravais-lattice index     =            0
     lattice parameter (alat)  =      37.7945  a.u.
     unit-cell volume          =    6926.4511 (a.u.)^3
     number of atoms/cell      =            2
     number of atomic types    =            1
     kinetic-energy cut-off    =      50.0000  Ry
     charge density cut-off    =     500.0000  Ry
     convergence threshold     =      1.0E-12
     beta                      =       0.7000
     number of iterations used =            4
     Exchange-correlation= PBE
                           (   1   4   3   4   0   0   0)


     celldm(1)=   37.79452  celldm(2)=    0.00000  celldm(3)=    0.00000
     celldm(4)=    0.00000  celldm(5)=    0.00000  celldm(6)=    0.00000

     crystal axes: (cart. coord. in units of alat)
               a(1) = (  1.0000  0.0000  0.0000 )  
               a(2) = (  0.0000  1.0000  0.0000 )  
               a(3) = (  0.0000  0.0000  0.1283 )  

     reciprocal axes: (cart. coord. in units 2 pi/alat)
               b(1) = (  1.0000  0.0000  0.0000 )  
               b(2) = (  0.0000  1.0000  0.0000 )  
               b(3) = (  0.0000  0.0000  7.7943 )  


     Atoms inside the unit cell: 

     Cartesian axes

     site n.  atom      mass           positions (alat units)
        1     C   12.0107   tau(    1) = (    0.50000    0.50000   -0.00010  )
        2     C   12.0107   tau(    2) = (    0.50000    0.50000    0.06259  )

     Computing dynamical matrix for 
                    q = (   0.0000000   0.0000000   0.7794277 )
 
      8 Sym.Ops. (no q -> -q+G )


     G cutoff =18091.2258  ( 186829 G-vectors)     FFT grid: (270,270, 36)
     G cutoff = 7236.4903  (  47198 G-vectors)  smooth grid: (180,180, 24)
     number of k points=    40

     PseudoPot. # 1 for C  read from file:
     ./pseudo/C.pbe-n-kjpaw_psl.1.0.0.UPF
     MD5 check sum: 6fec8efd722f5d988670a8dc528584a2
     Pseudo is Projector augmented-wave + core cor, Zval =  4.0
     Generated using "atomic" code by A. Dal Corso  v.5.1.2
     Shape of augmentation charge: PSQ
     Using radial grid of 1073 points,  4 beta functions with: 
                l(1) =   0
                l(2) =   0
                l(3) =   1
                l(4) =   1
     Q(r) pseudized with 0 coefficients 


     Mode symmetry, C_4v (4mm)  point group:


     Atomic displacements:
     There are    4 irreducible representations

     Representation     1      1 modes -  To be done

     Representation     2      1 modes -  To be done

     Representation     3      2 modes -  To be done

     Representation     4      2 modes -  To be done



     Alpha used in Ewald sum =   2.8000

     negative rho (up, down):  5.469E-04 0.000E+00
     PHONON       :  10m56.73s CPU   6m29.28s WALL



     Representation #   1 mode #   1

     Self-consistent Calculation

      iter #   1 total cpu time :   393.3 secs   av.it.:   6.0
      thresh= 1.000E-02 alpha_mix =  0.700 |ddv_scf|^2 =  1.145E-07

      iter #   2 total cpu time :   398.1 secs   av.it.:  11.6
      thresh= 3.384E-05 alpha_mix =  0.700 |ddv_scf|^2 =  2.093E-06

      iter #   3 total cpu time :   402.7 secs   av.it.:   9.6
      thresh= 1.447E-04 alpha_mix =  0.700 |ddv_scf|^2 =  7.686E-10

      iter #   4 total cpu time :   407.9 secs   av.it.:  12.2
      thresh= 2.772E-06 alpha_mix =  0.700 |ddv_scf|^2 =  5.169E-10

      iter #   5 total cpu time :   413.5 secs   av.it.:  11.7
      thresh= 2.273E-06 alpha_mix =  0.700 |ddv_scf|^2 =  6.269E-12

      iter #   6 total cpu time :   418.2 secs   av.it.:  11.1
      thresh= 2.504E-07 alpha_mix =  0.700 |ddv_scf|^2 =  3.708E-14

     End of self-consistent calculation

     Convergence has been achieved 


     Representation #   2 mode #   2

     Self-consistent Calculation

      iter #   1 total cpu time :   423.5 secs   av.it.:   6.0
      thresh= 1.000E-02 alpha_mix =  0.700 |ddv_scf|^2 =  1.136E-07

      iter #   2 total cpu time :   428.4 secs   av.it.:  11.6
      thresh= 3.370E-05 alpha_mix =  0.700 |ddv_scf|^2 =  2.092E-06

      iter #   3 total cpu time :   433.1 secs   av.it.:   9.6
      thresh= 1.446E-04 alpha_mix =  0.700 |ddv_scf|^2 =  8.181E-10

      iter #   4 total cpu time :   438.6 secs   av.it.:  12.1
      thresh= 2.860E-06 alpha_mix =  0.700 |ddv_scf|^2 =  5.070E-10

      iter #   5 total cpu time :   443.7 secs   av.it.:  11.8
      thresh= 2.252E-06 alpha_mix =  0.700 |ddv_scf|^2 =  6.532E-12

      iter #   6 total cpu time :   448.3 secs   av.it.:  11.1
      thresh= 2.556E-07 alpha_mix =  0.700 |ddv_scf|^2 =  3.955E-14

     End of self-consistent calculation

     Convergence has been achieved 


     Representation #   3 modes #   3   4

     Self-consistent Calculation

      iter #   1 total cpu time :   456.6 secs   av.it.:   5.3
      thresh= 1.000E-02 alpha_mix =  0.700 |ddv_scf|^2 =  5.211E-09

      iter #   2 total cpu time :   465.6 secs   av.it.:  11.7
      thresh= 7.218E-06 alpha_mix =  0.700 |ddv_scf|^2 =  7.011E-10

      iter #   3 total cpu time :   474.8 secs   av.it.:  11.6
      thresh= 2.648E-06 alpha_mix =  0.700 |ddv_scf|^2 =  4.325E-11

      iter #   4 total cpu time :   483.9 secs   av.it.:  11.7
      thresh= 6.576E-07 alpha_mix =  0.700 |ddv_scf|^2 =  8.197E-15

     End of self-consistent calculation

     Convergence has been achieved 


     Representation #   4 modes #   5   6

     Self-consistent Calculation

      iter #   1 total cpu time :   493.2 secs   av.it.:   5.3
      thresh= 1.000E-02 alpha_mix =  0.700 |ddv_scf|^2 =  5.316E-09

      iter #   2 total cpu time :   503.2 secs   av.it.:  11.7
      thresh= 7.291E-06 alpha_mix =  0.700 |ddv_scf|^2 =  4.313E-10

      iter #   3 total cpu time :   517.9 secs   av.it.:  11.8
      thresh= 2.077E-06 alpha_mix =  0.700 |ddv_scf|^2 =  4.270E-11

      iter #   4 total cpu time :   530.3 secs   av.it.:  11.4
      thresh= 6.535E-07 alpha_mix =  0.700 |ddv_scf|^2 =  5.587E-15

     End of self-consistent calculation

     Convergence has been achieved 
 
     Number of q in the star =    1
     List of q in the star:
          1   0.000000000   0.000000000   0.779427659
     In addition there is the -q list: 
          1   0.000000000   0.000000000  -0.779427659

     Diagonalizing the dynamical matrix

     q = (    0.000000000   0.000000000   0.779427659 ) 

 **************************************************************************
     freq (    1) =       1.517741 [THz] =      50.626401 [cm-1]
     freq (    2) =       1.517741 [THz] =      50.626401 [cm-1]
     freq (    3) =      12.026795 [THz] =     401.170699 [cm-1]
     freq (    4) =      14.846758 [THz] =     495.234549 [cm-1]
     freq (    5) =      14.846758 [THz] =     495.234549 [cm-1]
     freq (    6) =      60.545057 [THz] =    2019.565727 [cm-1]
 **************************************************************************

     Mode symmetry, C_4v (4mm)  point group:

     freq (   1-   2) =         50.6  [cm-1]   --> E    G_5 D_5       
     freq (   3-   3) =        401.2  [cm-1]   --> A_1  G_1 D_1       
     freq (   4-   5) =        495.2  [cm-1]   --> E    G_5 D_5       
     freq (   6-   6) =       2019.6  [cm-1]   --> A_1  G_1 D_1       

     Calculation of q =    0.0000000   0.0000000   1.1691415
 
     Parallelization info
     --------------------
     sticks:   dense  smooth     PW     G-vecs:    dense   smooth      PW
     Min        8121    3246   1001               186828    47197    8043
     Max        8124    3248   1003               186829    47198    8043
     Sum       56853   22733   7017              1307799   330385   56301
 

     Title: 
     phonons calculation                                                        


     bravais-lattice index     =            0
     lattice parameter (alat)  =      37.7945  a.u.
     unit-cell volume          =    6926.4511 (a.u.)^3
     number of atoms/cell      =            2
     number of atomic types    =            1
     number of electrons       =         8.00
     number of Kohn-Sham states=            8
     kinetic-energy cutoff     =      50.0000  Ry
     charge density cutoff     =     500.0000  Ry
     Exchange-correlation= PBE
                           (   1   4   3   4   0   0   0)

     celldm(1)=  37.794522  celldm(2)=   0.000000  celldm(3)=   0.000000
     celldm(4)=   0.000000  celldm(5)=   0.000000  celldm(6)=   0.000000

     crystal axes: (cart. coord. in units of alat)
               a(1) = (   1.000000   0.000000   0.000000 )  
               a(2) = (   0.000000   1.000000   0.000000 )  
               a(3) = (   0.000000   0.000000   0.128299 )  

     reciprocal axes: (cart. coord. in units 2 pi/alat)
               b(1) = (  1.000000  0.000000  0.000000 )  
               b(2) = (  0.000000  1.000000  0.000000 )  
               b(3) = (  0.000000  0.000000  7.794277 )  


     PseudoPot. # 1 for C  read from file:
     ./pseudo/C.pbe-n-kjpaw_psl.1.0.0.UPF
     MD5 check sum: 6fec8efd722f5d988670a8dc528584a2
     Pseudo is Projector augmented-wave + core cor, Zval =  4.0
     Generated using "atomic" code by A. Dal Corso  v.5.1.2
     Shape of augmentation charge: PSQ
     Using radial grid of 1073 points,  4 beta functions with: 
                l(1) =   0
                l(2) =   0
                l(3) =   1
                l(4) =   1
     Q(r) pseudized with 0 coefficients 


     atomic species   valence    mass     pseudopotential
        C              4.00    12.01070     C ( 1.00)

      8 Sym. Ops. (no inversion) found



   Cartesian axes

     site n.     atom                  positions (alat units)
         1           C   tau(   1) = (   0.5000000   0.5000000  -0.0000988  )
         2           C   tau(   2) = (   0.5000000   0.5000000   0.0625851  )

     number of k points=    40
                       cart. coord. in units 2pi/alat
        k(    1) = (   0.0000000   0.0000000   0.0000000), wk =   0.1000000
        k(    2) = (   0.0000000   0.0000000   1.1691415), wk =   0.0000000
        k(    3) = (   0.0000000   0.0000000   0.3897138), wk =   0.1000000
        k(    4) = (   0.0000000   0.0000000   1.5588553), wk =   0.0000000
        k(    5) = (   0.0000000   0.0000000   0.7794277), wk =   0.1000000
        k(    6) = (   0.0000000   0.0000000   1.9485691), wk =   0.0000000
        k(    7) = (   0.0000000   0.0000000   1.1691415), wk =   0.1000000
        k(    8) = (   0.0000000   0.0000000   2.3382830), wk =   0.0000000
        k(    9) = (   0.0000000   0.0000000   1.5588553), wk =   0.1000000
        k(   10) = (   0.0000000   0.0000000   2.7279968), wk =   0.0000000
        k(   11) = (   0.0000000   0.0000000   1.9485691), wk =   0.1000000
        k(   12) = (   0.0000000   0.0000000   3.1177106), wk =   0.0000000
        k(   13) = (   0.0000000   0.0000000   2.3382830), wk =   0.1000000
        k(   14) = (   0.0000000   0.0000000   3.5074245), wk =   0.0000000
        k(   15) = (   0.0000000   0.0000000   2.7279968), wk =   0.1000000
        k(   16) = (   0.0000000   0.0000000   3.8971383), wk =   0.0000000
        k(   17) = (   0.0000000   0.0000000   3.1177106), wk =   0.1000000
        k(   18) = (   0.0000000   0.0000000   4.2868521), wk =   0.0000000
        k(   19) = (   0.0000000   0.0000000   3.5074245), wk =   0.1000000
        k(   20) = (   0.0000000   0.0000000   4.6765660), wk =   0.0000000
        k(   21) = (   0.0000000   0.0000000  -3.8971383), wk =   0.1000000
        k(   22) = (   0.0000000   0.0000000  -2.7279968), wk =   0.0000000
        k(   23) = (   0.0000000   0.0000000  -0.3897138), wk =   0.1000000
        k(   24) = (   0.0000000   0.0000000   0.7794277), wk =   0.0000000
        k(   25) = (   0.0000000   0.0000000  -0.7794277), wk =   0.1000000
        k(   26) = (   0.0000000   0.0000000   0.3897138), wk =   0.0000000
        k(   27) = (   0.0000000   0.0000000  -1.1691415), wk =   0.1000000
        k(   28) = (   0.0000000   0.0000000   0.0000000), wk =   0.0000000
        k(   29) = (   0.0000000   0.0000000  -1.5588553), wk =   0.1000000
        k(   30) = (   0.0000000   0.0000000  -0.3897138), wk =   0.0000000
        k(   31) = (   0.0000000   0.0000000  -1.9485691), wk =   0.1000000
        k(   32) = (   0.0000000   0.0000000  -0.7794277), wk =   0.0000000
        k(   33) = (   0.0000000   0.0000000  -2.3382830), wk =   0.1000000
        k(   34) = (   0.0000000   0.0000000  -1.1691415), wk =   0.0000000
        k(   35) = (   0.0000000   0.0000000  -2.7279968), wk =   0.1000000
        k(   36) = (   0.0000000   0.0000000  -1.5588553), wk =   0.0000000
        k(   37) = (   0.0000000   0.0000000  -3.1177106), wk =   0.1000000
        k(   38) = (   0.0000000   0.0000000  -1.9485691), wk =   0.0000000
        k(   39) = (   0.0000000   0.0000000  -3.5074245), wk =   0.1000000
        k(   40) = (   0.0000000   0.0000000  -2.3382830), wk =   0.0000000

     Dense  grid:  1307799 G-vectors     FFT dimensions: ( 270, 270,  36)

     Smooth grid:   330385 G-vectors     FFT dimensions: ( 180, 180,  24)

     Estimated max dynamical RAM per process >      92.09 MB

     Estimated total dynamical RAM >       2.52 GB

     The potential is recalculated from file :
     ./_ph0/carbyne.q_4/carbyne.save/charge-density


     negative rho (up, down):  5.469E-04 0.000E+00
     Starting wfcs are    8 atomic wfcs
     Checking if some PAW data can be deallocated... 

     Band Structure Calculation
     Davidson diagonalization with overlap

     ethr =  1.25E-10,  avg # of iterations = 39.4

     total cpu time spent up to now is       54.7 secs

     End of band structure calculation

          k = 0.0000 0.0000 0.0000 ( 41563 PWs)   bands (ev):

   -21.2595 -14.0554 -10.3185 -10.3185  -0.5158   0.0857   0.1863   0.1863

          k = 0.0000 0.0000 1.1691 ( 41499 PWs)   bands (ev):

   -20.9708 -14.6360  -9.8340  -9.8340  -0.0253   0.5963   0.6994   0.6994

          k = 0.0000 0.0000 0.3897 ( 41519 PWs)   bands (ev):

   -21.2273 -14.1234 -10.2646 -10.2646  -0.4612   0.1424   0.2433   0.2433

          k = 0.0000 0.0000 1.5589 ( 41455 PWs)   bands (ev):

   -20.7490 -15.0448  -9.4580  -9.4580   0.3545   0.9934   1.0983   1.0983

          k = 0.0000 0.0000 0.7794 ( 41483 PWs)   bands (ev):

   -21.1307 -14.3219 -10.1030 -10.1030  -0.2976   0.3126   0.4144   0.4144

          k = 0.0000 0.0000 1.9486 ( 41391 PWs)   bands (ev):

   -20.4677 -15.5249  -8.9758  -8.9758   0.8405   1.1923   1.1923   1.5038

          k = 0.0000 0.0000 1.1691 ( 41499 PWs)   bands (ev):

   -20.9708 -14.6360  -9.8340  -9.8340  -0.0253   0.5963   0.6994   0.6994

          k = 0.0000 0.0000 2.3383 ( 41355 PWs)   bands (ev):

   -20.1299 -16.0534  -8.3885  -8.3885  -0.1626  -0.1626   1.4298   2.1275

          k = 0.0000 0.0000 1.5589 ( 41455 PWs)   bands (ev):

   -20.7490 -15.0448  -9.4580  -9.4580   0.3545   0.9934   1.0983   1.0983

          k = 0.0000 0.0000 2.7280 ( 41327 PWs)   bands (ev):

   -19.7395 -16.6094  -7.6978  -7.6978  -1.4758  -1.4758   2.1180   2.8643

          k = 0.0000 0.0000 1.9486 ( 41391 PWs)   bands (ev):

   -20.4677 -15.5249  -8.9758  -8.9758   0.8405   1.1923   1.1923   1.5038

          k = 0.0000 0.0000 3.1177 ( 41207 PWs)   bands (ev):

   -19.3019 -17.1745  -6.9072  -6.9072  -2.7223  -2.7223   2.8966   3.7139

          k = 0.0000 0.0000 2.3383 ( 41355 PWs)   bands (ev):

   -20.1299 -16.0534  -8.3885  -8.3885  -0.1626  -0.1626   1.4298   2.1275

          k = 0.0000 0.0000 3.5074 ( 41035 PWs)   bands (ev):

   -18.8269 -17.7296  -6.0266  -6.0266  -3.8804  -3.8804   3.7481   4.6755

          k = 0.0000 0.0000 2.7280 ( 41327 PWs)   bands (ev):

   -19.7395 -16.6094  -7.6978  -7.6978  -1.4758  -1.4758   2.1180   2.8643

          k = 0.0000 0.0000 3.8971 ( 41050 PWs)   bands (ev):

   -18.4245 -18.1593  -5.2621  -5.2621  -4.7380  -4.7380   4.5568   4.7319

          k = 0.0000 0.0000 3.1177 ( 41207 PWs)   bands (ev):

   -19.3019 -17.1745  -6.9072  -6.9072  -2.7223  -2.7223   2.8966   3.7139

          k = 0.0000 0.0000 4.2869 ( 41035 PWs)   bands (ev):

   -18.8269 -17.7296  -6.0266  -6.0266  -3.8804  -3.8804   3.7481   4.6755

          k = 0.0000 0.0000 3.5074 ( 41035 PWs)   bands (ev):

   -18.8269 -17.7296  -6.0266  -6.0266  -3.8804  -3.8804   3.7481   4.6755

          k = 0.0000 0.0000 4.6766 ( 41207 PWs)   bands (ev):

   -19.3019 -17.1745  -6.9072  -6.9072  -2.7223  -2.7223   2.8966   3.7139

          k = 0.0000 0.0000-3.8971 ( 41050 PWs)   bands (ev):

   -18.4245 -18.1593  -5.2621  -5.2621  -4.7380  -4.7380   4.5568   4.7319

          k = 0.0000 0.0000-2.7280 ( 41327 PWs)   bands (ev):

   -19.7395 -16.6094  -7.6978  -7.6978  -1.4758  -1.4758   2.1180   2.8643

          k = 0.0000 0.0000-0.3897 ( 41519 PWs)   bands (ev):

   -21.2273 -14.1234 -10.2646 -10.2646  -0.4612   0.1424   0.2433   0.2433

          k = 0.0000 0.0000 0.7794 ( 41483 PWs)   bands (ev):

   -21.1307 -14.3219 -10.1030 -10.1030  -0.2976   0.3126   0.4144   0.4144

          k = 0.0000 0.0000-0.7794 ( 41483 PWs)   bands (ev):

   -21.1307 -14.3219 -10.1030 -10.1030  -0.2976   0.3126   0.4144   0.4144

          k = 0.0000 0.0000 0.3897 ( 41519 PWs)   bands (ev):

   -21.2273 -14.1234 -10.2646 -10.2646  -0.4612   0.1424   0.2433   0.2433

          k = 0.0000 0.0000-1.1691 ( 41499 PWs)   bands (ev):

   -20.9708 -14.6360  -9.8340  -9.8340  -0.0253   0.5963   0.6994   0.6994

          k = 0.0000 0.0000 0.0000 ( 41563 PWs)   bands (ev):

   -21.2595 -14.0554 -10.3185 -10.3185  -0.5158   0.0857   0.1863   0.1863

          k = 0.0000 0.0000-1.5589 ( 41455 PWs)   bands (ev):

   -20.7490 -15.0448  -9.4580  -9.4580   0.3545   0.9934   1.0983   1.0983

          k = 0.0000 0.0000-0.3897 ( 41519 PWs)   bands (ev):

   -21.2273 -14.1234 -10.2646 -10.2646  -0.4612   0.1424   0.2433   0.2433

          k = 0.0000 0.0000-1.9486 ( 41391 PWs)   bands (ev):

   -20.4677 -15.5249  -8.9758  -8.9758   0.8405   1.1923   1.1923   1.5038

          k = 0.0000 0.0000-0.7794 ( 41483 PWs)   bands (ev):

   -21.1307 -14.3219 -10.1030 -10.1030  -0.2976   0.3126   0.4144   0.4144

          k = 0.0000 0.0000-2.3383 ( 41355 PWs)   bands (ev):

   -20.1299 -16.0534  -8.3885  -8.3885  -0.1626  -0.1626   1.4298   2.1275

          k = 0.0000 0.0000-1.1691 ( 41499 PWs)   bands (ev):

   -20.9708 -14.6360  -9.8340  -9.8340  -0.0253   0.5963   0.6994   0.6994

          k = 0.0000 0.0000-2.7280 ( 41327 PWs)   bands (ev):

   -19.7395 -16.6094  -7.6978  -7.6978  -1.4758  -1.4758   2.1180   2.8643

          k = 0.0000 0.0000-1.5589 ( 41455 PWs)   bands (ev):

   -20.7490 -15.0448  -9.4580  -9.4580   0.3545   0.9934   1.0983   1.0983

          k = 0.0000 0.0000-3.1177 ( 41207 PWs)   bands (ev):

   -19.3019 -17.1745  -6.9072  -6.9072  -2.7223  -2.7223   2.8966   3.7139

          k = 0.0000 0.0000-1.9486 ( 41391 PWs)   bands (ev):

   -20.4677 -15.5249  -8.9758  -8.9758   0.8405   1.1923   1.1923   1.5038

          k = 0.0000 0.0000-3.5074 ( 41035 PWs)   bands (ev):

   -18.8269 -17.7296  -6.0266  -6.0266  -3.8804  -3.8804   3.7481   4.6755

          k = 0.0000 0.0000-2.3383 ( 41355 PWs)   bands (ev):

   -20.1299 -16.0534  -8.3885  -8.3885  -0.1626  -0.1626   1.4298   2.1275

     highest occupied, lowest unoccupied level (ev):    -5.2621   -4.7380

     Writing output data file ./_ph0/carbyne.q_4/carbyne.save/

     phonons calculation                                                        

     bravais-lattice index     =            0
     lattice parameter (alat)  =      37.7945  a.u.
     unit-cell volume          =    6926.4511 (a.u.)^3
     number of atoms/cell      =            2
     number of atomic types    =            1
     kinetic-energy cut-off    =      50.0000  Ry
     charge density cut-off    =     500.0000  Ry
     convergence threshold     =      1.0E-12
     beta                      =       0.7000
     number of iterations used =            4
     Exchange-correlation= PBE
                           (   1   4   3   4   0   0   0)


     celldm(1)=   37.79452  celldm(2)=    0.00000  celldm(3)=    0.00000
     celldm(4)=    0.00000  celldm(5)=    0.00000  celldm(6)=    0.00000

     crystal axes: (cart. coord. in units of alat)
               a(1) = (  1.0000  0.0000  0.0000 )  
               a(2) = (  0.0000  1.0000  0.0000 )  
               a(3) = (  0.0000  0.0000  0.1283 )  

     reciprocal axes: (cart. coord. in units 2 pi/alat)
               b(1) = (  1.0000  0.0000  0.0000 )  
               b(2) = (  0.0000  1.0000  0.0000 )  
               b(3) = (  0.0000  0.0000  7.7943 )  


     Atoms inside the unit cell: 

     Cartesian axes

     site n.  atom      mass           positions (alat units)
        1     C   12.0107   tau(    1) = (    0.50000    0.50000   -0.00010  )
        2     C   12.0107   tau(    2) = (    0.50000    0.50000    0.06259  )

     Computing dynamical matrix for 
                    q = (   0.0000000   0.0000000   1.1691415 )
 
      8 Sym.Ops. (no q -> -q+G )


     G cutoff =18091.2258  ( 186828 G-vectors)     FFT grid: (270,270, 36)
     G cutoff = 7236.4903  (  47198 G-vectors)  smooth grid: (180,180, 24)
     number of k points=    40

     PseudoPot. # 1 for C  read from file:
     ./pseudo/C.pbe-n-kjpaw_psl.1.0.0.UPF
     MD5 check sum: 6fec8efd722f5d988670a8dc528584a2
     Pseudo is Projector augmented-wave + core cor, Zval =  4.0
     Generated using "atomic" code by A. Dal Corso  v.5.1.2
     Shape of augmentation charge: PSQ
     Using radial grid of 1073 points,  4 beta functions with: 
                l(1) =   0
                l(2) =   0
                l(3) =   1
                l(4) =   1
     Q(r) pseudized with 0 coefficients 


     Mode symmetry, C_4v (4mm)  point group:


     Atomic displacements:
     There are    4 irreducible representations

     Representation     1      1 modes -  To be done

     Representation     2      1 modes -  To be done

     Representation     3      2 modes -  To be done

     Representation     4      2 modes -  To be done



     Alpha used in Ewald sum =   2.8000

     negative rho (up, down):  5.469E-04 0.000E+00
     PHONON       :  15m48.19s CPU   9m27.82s WALL



     Representation #   1 mode #   1

     Self-consistent Calculation

      iter #   1 total cpu time :   571.9 secs   av.it.:   6.0
      thresh= 1.000E-02 alpha_mix =  0.700 |ddv_scf|^2 =  7.767E-08

      iter #   2 total cpu time :   577.2 secs   av.it.:  11.8
      thresh= 2.787E-05 alpha_mix =  0.700 |ddv_scf|^2 =  9.720E-07

      iter #   3 total cpu time :   582.1 secs   av.it.:  10.1
      thresh= 9.859E-05 alpha_mix =  0.700 |ddv_scf|^2 =  8.465E-10

      iter #   4 total cpu time :   587.6 secs   av.it.:  12.3
      thresh= 2.909E-06 alpha_mix =  0.700 |ddv_scf|^2 =  4.861E-10

      iter #   5 total cpu time :   592.8 secs   av.it.:  11.9
      thresh= 2.205E-06 alpha_mix =  0.700 |ddv_scf|^2 =  3.223E-12

      iter #   6 total cpu time :   597.5 secs   av.it.:  11.1
      thresh= 1.795E-07 alpha_mix =  0.700 |ddv_scf|^2 =  1.076E-14

     End of self-consistent calculation

     Convergence has been achieved 


     Representation #   2 mode #   2

     Self-consistent Calculation

      iter #   1 total cpu time :   602.9 secs   av.it.:   6.0
      thresh= 1.000E-02 alpha_mix =  0.700 |ddv_scf|^2 =  7.691E-08

      iter #   2 total cpu time :   607.8 secs   av.it.:  11.8
      thresh= 2.773E-05 alpha_mix =  0.700 |ddv_scf|^2 =  9.719E-07

      iter #   3 total cpu time :   612.5 secs   av.it.:  10.1
      thresh= 9.858E-05 alpha_mix =  0.700 |ddv_scf|^2 =  8.591E-10

      iter #   4 total cpu time :   617.8 secs   av.it.:  12.3
      thresh= 2.931E-06 alpha_mix =  0.700 |ddv_scf|^2 =  4.757E-10

      iter #   5 total cpu time :   622.8 secs   av.it.:  11.9
      thresh= 2.181E-06 alpha_mix =  0.700 |ddv_scf|^2 =  3.572E-12

      iter #   6 total cpu time :   627.6 secs   av.it.:  11.2
      thresh= 1.890E-07 alpha_mix =  0.700 |ddv_scf|^2 =  1.261E-14

     End of self-consistent calculation

     Convergence has been achieved 


     Representation #   3 modes #   3   4

     Self-consistent Calculation

      iter #   1 total cpu time :   636.1 secs   av.it.:   5.5
      thresh= 1.000E-02 alpha_mix =  0.700 |ddv_scf|^2 =  4.688E-09

      iter #   2 total cpu time :   645.1 secs   av.it.:  11.8
      thresh= 6.847E-06 alpha_mix =  0.700 |ddv_scf|^2 =  5.644E-10

      iter #   3 total cpu time :   654.2 secs   av.it.:  11.6
      thresh= 2.376E-06 alpha_mix =  0.700 |ddv_scf|^2 =  2.800E-11

      iter #   4 total cpu time :   663.3 secs   av.it.:  11.8
      thresh= 5.292E-07 alpha_mix =  0.700 |ddv_scf|^2 =  7.927E-15

     End of self-consistent calculation

     Convergence has been achieved 


     Representation #   4 modes #   5   6

     Self-consistent Calculation

      iter #   1 total cpu time :   672.8 secs   av.it.:   5.5
      thresh= 1.000E-02 alpha_mix =  0.700 |ddv_scf|^2 =  4.683E-09

      iter #   2 total cpu time :   681.9 secs   av.it.:  11.8
      thresh= 6.843E-06 alpha_mix =  0.700 |ddv_scf|^2 =  3.413E-10

      iter #   3 total cpu time :   691.2 secs   av.it.:  11.8
      thresh= 1.847E-06 alpha_mix =  0.700 |ddv_scf|^2 =  3.056E-11

      iter #   4 total cpu time :   700.3 secs   av.it.:  11.7
      thresh= 5.528E-07 alpha_mix =  0.700 |ddv_scf|^2 =  3.495E-15

     End of self-consistent calculation

     Convergence has been achieved 
 
     Number of q in the star =    1
     List of q in the star:
          1   0.000000000   0.000000000   1.169141488
     In addition there is the -q list: 
          1   0.000000000   0.000000000  -1.169141488

     Diagonalizing the dynamical matrix

     q = (    0.000000000   0.000000000   1.169141488 ) 

 **************************************************************************
     freq (    1) =       2.622851 [THz] =      87.488890 [cm-1]
     freq (    2) =       2.622851 [THz] =      87.488890 [cm-1]
     freq (    3) =      14.774996 [THz] =     492.840833 [cm-1]
     freq (    4) =      14.774996 [THz] =     492.840833 [cm-1]
     freq (    5) =      18.011991 [THz] =     600.815345 [cm-1]
     freq (    6) =      64.052310 [THz] =    2136.555091 [cm-1]
 **************************************************************************

     Mode symmetry, C_4v (4mm)  point group:

     freq (   1-   2) =         87.5  [cm-1]   --> E    G_5 D_5       
     freq (   3-   4) =        492.8  [cm-1]   --> E    G_5 D_5       
     freq (   5-   5) =        600.8  [cm-1]   --> A_1  G_1 D_1       
     freq (   6-   6) =       2136.6  [cm-1]   --> A_1  G_1 D_1       

     Calculation of q =    0.0000000   0.0000000   1.5588553
 
     Parallelization info
     --------------------
     sticks:   dense  smooth     PW     G-vecs:    dense   smooth      PW
     Min        8121    3246   1018               186828    47197    8254
     Max        8124    3248   1019               186829    47198    8255
     Sum       56853   22733   7129              1307799   330385   57781
 

     Title: 
     phonons calculation                                                        


     bravais-lattice index     =            0
     lattice parameter (alat)  =      37.7945  a.u.
     unit-cell volume          =    6926.4511 (a.u.)^3
     number of atoms/cell      =            2
     number of atomic types    =            1
     number of electrons       =         8.00
     number of Kohn-Sham states=            8
     kinetic-energy cutoff     =      50.0000  Ry
     charge density cutoff     =     500.0000  Ry
     Exchange-correlation= PBE
                           (   1   4   3   4   0   0   0)

     celldm(1)=  37.794522  celldm(2)=   0.000000  celldm(3)=   0.000000
     celldm(4)=   0.000000  celldm(5)=   0.000000  celldm(6)=   0.000000

     crystal axes: (cart. coord. in units of alat)
               a(1) = (   1.000000   0.000000   0.000000 )  
               a(2) = (   0.000000   1.000000   0.000000 )  
               a(3) = (   0.000000   0.000000   0.128299 )  

     reciprocal axes: (cart. coord. in units 2 pi/alat)
               b(1) = (  1.000000  0.000000  0.000000 )  
               b(2) = (  0.000000  1.000000  0.000000 )  
               b(3) = (  0.000000  0.000000  7.794277 )  


     PseudoPot. # 1 for C  read from file:
     ./pseudo/C.pbe-n-kjpaw_psl.1.0.0.UPF
     MD5 check sum: 6fec8efd722f5d988670a8dc528584a2
     Pseudo is Projector augmented-wave + core cor, Zval =  4.0
     Generated using "atomic" code by A. Dal Corso  v.5.1.2
     Shape of augmentation charge: PSQ
     Using radial grid of 1073 points,  4 beta functions with: 
                l(1) =   0
                l(2) =   0
                l(3) =   1
                l(4) =   1
     Q(r) pseudized with 0 coefficients 


     atomic species   valence    mass     pseudopotential
        C              4.00    12.01070     C ( 1.00)

      8 Sym. Ops. (no inversion) found



   Cartesian axes

     site n.     atom                  positions (alat units)
         1           C   tau(   1) = (   0.5000000   0.5000000  -0.0000988  )
         2           C   tau(   2) = (   0.5000000   0.5000000   0.0625851  )

     number of k points=    40
                       cart. coord. in units 2pi/alat
        k(    1) = (   0.0000000   0.0000000   0.0000000), wk =   0.1000000
        k(    2) = (   0.0000000   0.0000000   1.5588553), wk =   0.0000000
        k(    3) = (   0.0000000   0.0000000   0.3897138), wk =   0.1000000
        k(    4) = (   0.0000000   0.0000000   1.9485691), wk =   0.0000000
        k(    5) = (   0.0000000   0.0000000   0.7794277), wk =   0.1000000
        k(    6) = (   0.0000000   0.0000000   2.3382830), wk =   0.0000000
        k(    7) = (   0.0000000   0.0000000   1.1691415), wk =   0.1000000
        k(    8) = (   0.0000000   0.0000000   2.7279968), wk =   0.0000000
        k(    9) = (   0.0000000   0.0000000   1.5588553), wk =   0.1000000
        k(   10) = (   0.0000000   0.0000000   3.1177106), wk =   0.0000000
        k(   11) = (   0.0000000   0.0000000   1.9485691), wk =   0.1000000
        k(   12) = (   0.0000000   0.0000000   3.5074245), wk =   0.0000000
        k(   13) = (   0.0000000   0.0000000   2.3382830), wk =   0.1000000
        k(   14) = (   0.0000000   0.0000000   3.8971383), wk =   0.0000000
        k(   15) = (   0.0000000   0.0000000   2.7279968), wk =   0.1000000
        k(   16) = (   0.0000000   0.0000000   4.2868521), wk =   0.0000000
        k(   17) = (   0.0000000   0.0000000   3.1177106), wk =   0.1000000
        k(   18) = (   0.0000000   0.0000000   4.6765660), wk =   0.0000000
        k(   19) = (   0.0000000   0.0000000   3.5074245), wk =   0.1000000
        k(   20) = (   0.0000000   0.0000000   5.0662798), wk =   0.0000000
        k(   21) = (   0.0000000   0.0000000  -3.8971383), wk =   0.1000000
        k(   22) = (   0.0000000   0.0000000  -2.3382830), wk =   0.0000000
        k(   23) = (   0.0000000   0.0000000  -0.3897138), wk =   0.1000000
        k(   24) = (   0.0000000   0.0000000   1.1691415), wk =   0.0000000
        k(   25) = (   0.0000000   0.0000000  -0.7794277), wk =   0.1000000
        k(   26) = (   0.0000000   0.0000000   0.7794277), wk =   0.0000000
        k(   27) = (   0.0000000   0.0000000  -1.1691415), wk =   0.1000000
        k(   28) = (   0.0000000   0.0000000   0.3897138), wk =   0.0000000
        k(   29) = (   0.0000000   0.0000000  -1.5588553), wk =   0.1000000
        k(   30) = (   0.0000000   0.0000000   0.0000000), wk =   0.0000000
        k(   31) = (   0.0000000   0.0000000  -1.9485691), wk =   0.1000000
        k(   32) = (   0.0000000   0.0000000  -0.3897138), wk =   0.0000000
        k(   33) = (   0.0000000   0.0000000  -2.3382830), wk =   0.1000000
        k(   34) = (   0.0000000   0.0000000  -0.7794277), wk =   0.0000000
        k(   35) = (   0.0000000   0.0000000  -2.7279968), wk =   0.1000000
        k(   36) = (   0.0000000   0.0000000  -1.1691415), wk =   0.0000000
        k(   37) = (   0.0000000   0.0000000  -3.1177106), wk =   0.1000000
        k(   38) = (   0.0000000   0.0000000  -1.5588553), wk =   0.0000000
        k(   39) = (   0.0000000   0.0000000  -3.5074245), wk =   0.1000000
        k(   40) = (   0.0000000   0.0000000  -1.9485691), wk =   0.0000000

     Dense  grid:  1307799 G-vectors     FFT dimensions: ( 270, 270,  36)

     Smooth grid:   330385 G-vectors     FFT dimensions: ( 180, 180,  24)

     Estimated max dynamical RAM per process >      92.09 MB

     Estimated total dynamical RAM >       2.52 GB

     The potential is recalculated from file :
     ./_ph0/carbyne.q_5/carbyne.save/charge-density


     negative rho (up, down):  5.469E-04 0.000E+00
     Starting wfcs are    8 atomic wfcs
     Checking if some PAW data can be deallocated... 

     Band Structure Calculation
     Davidson diagonalization with overlap

     ethr =  1.25E-10,  avg # of iterations = 39.4

     total cpu time spent up to now is       73.2 secs

     End of band structure calculation

          k = 0.0000 0.0000 0.0000 ( 41563 PWs)   bands (ev):

   -21.2595 -14.0554 -10.3185 -10.3185  -0.5158   0.0857   0.1863   0.1863

          k = 0.0000 0.0000 1.5589 ( 41455 PWs)   bands (ev):

   -20.7490 -15.0448  -9.4580  -9.4580   0.3545   0.9934   1.0983   1.0983

          k = 0.0000 0.0000 0.3897 ( 41519 PWs)   bands (ev):

   -21.2273 -14.1234 -10.2646 -10.2646  -0.4612   0.1424   0.2433   0.2433

          k = 0.0000 0.0000 1.9486 ( 41391 PWs)   bands (ev):

   -20.4677 -15.5249  -8.9758  -8.9758   0.8405   1.1923   1.1923   1.5038

          k = 0.0000 0.0000 0.7794 ( 41483 PWs)   bands (ev):

   -21.1307 -14.3219 -10.1030 -10.1030  -0.2976   0.3126   0.4144   0.4144

          k = 0.0000 0.0000 2.3383 ( 41355 PWs)   bands (ev):

   -20.1299 -16.0534  -8.3885  -8.3885  -0.1626  -0.1626   1.4298   2.1275

          k = 0.0000 0.0000 1.1691 ( 41499 PWs)   bands (ev):

   -20.9708 -14.6360  -9.8340  -9.8340  -0.0253   0.5963   0.6994   0.6994

          k = 0.0000 0.0000 2.7280 ( 41327 PWs)   bands (ev):

   -19.7395 -16.6094  -7.6978  -7.6978  -1.4758  -1.4758   2.1180   2.8643

          k = 0.0000 0.0000 1.5589 ( 41455 PWs)   bands (ev):

   -20.7490 -15.0448  -9.4580  -9.4580   0.3545   0.9934   1.0983   1.0983

          k = 0.0000 0.0000 3.1177 ( 41207 PWs)   bands (ev):

   -19.3019 -17.1745  -6.9072  -6.9072  -2.7223  -2.7223   2.8966   3.7139

          k = 0.0000 0.0000 1.9486 ( 41391 PWs)   bands (ev):

   -20.4677 -15.5249  -8.9758  -8.9758   0.8405   1.1923   1.1923   1.5038

          k = 0.0000 0.0000 3.5074 ( 41035 PWs)   bands (ev):

   -18.8269 -17.7296  -6.0266  -6.0266  -3.8804  -3.8804   3.7481   4.6755

          k = 0.0000 0.0000 2.3383 ( 41355 PWs)   bands (ev):

   -20.1299 -16.0534  -8.3885  -8.3885  -0.1626  -0.1626   1.4298   2.1275

          k = 0.0000 0.0000 3.8971 ( 41050 PWs)   bands (ev):

   -18.4245 -18.1593  -5.2621  -5.2621  -4.7380  -4.7380   4.5568   4.7319

          k = 0.0000 0.0000 2.7280 ( 41327 PWs)   bands (ev):

   -19.7395 -16.6094  -7.6978  -7.6978  -1.4758  -1.4758   2.1180   2.8643

          k = 0.0000 0.0000 4.2869 ( 41035 PWs)   bands (ev):

   -18.8269 -17.7296  -6.0266  -6.0266  -3.8804  -3.8804   3.7481   4.6755

          k = 0.0000 0.0000 3.1177 ( 41207 PWs)   bands (ev):

   -19.3019 -17.1745  -6.9072  -6.9072  -2.7223  -2.7223   2.8966   3.7139

          k = 0.0000 0.0000 4.6766 ( 41207 PWs)   bands (ev):

   -19.3019 -17.1745  -6.9072  -6.9072  -2.7223  -2.7223   2.8966   3.7139

          k = 0.0000 0.0000 3.5074 ( 41035 PWs)   bands (ev):

   -18.8269 -17.7296  -6.0266  -6.0266  -3.8804  -3.8804   3.7481   4.6755

          k = 0.0000 0.0000 5.0663 ( 41327 PWs)   bands (ev):

   -19.7395 -16.6094  -7.6978  -7.6978  -1.4758  -1.4758   2.1180   2.8643

          k = 0.0000 0.0000-3.8971 ( 41050 PWs)   bands (ev):

   -18.4245 -18.1593  -5.2621  -5.2621  -4.7380  -4.7380   4.5568   4.7319

[...]
                           (   1   4   3   4   0   0   0)

     celldm(1)=  37.794522  celldm(2)=   0.000000  celldm(3)=   0.000000
     celldm(4)=   0.000000  celldm(5)=   0.000000  celldm(6)=   0.000000

     crystal axes: (cart. coord. in units of alat)
               a(1) = (   1.000000   0.000000   0.000000 )  
               a(2) = (   0.000000   1.000000   0.000000 )  
               a(3) = (   0.000000   0.000000   0.128299 )  

     reciprocal axes: (cart. coord. in units 2 pi/alat)
               b(1) = (  1.000000  0.000000  0.000000 )  
               b(2) = (  0.000000  1.000000  0.000000 )  
               b(3) = (  0.000000  0.000000  7.794277 )  


     PseudoPot. # 1 for C  read from file:
     ./pseudo/C.pbe-n-kjpaw_psl.1.0.0.UPF
     MD5 check sum: 6fec8efd722f5d988670a8dc528584a2
     Pseudo is Projector augmented-wave + core cor, Zval =  4.0
     Generated using "atomic" code by A. Dal Corso  v.5.1.2
     Shape of augmentation charge: PSQ
     Using radial grid of 1073 points,  4 beta functions with: 
                l(1) =   0
                l(2) =   0
                l(3) =   1
                l(4) =   1
     Q(r) pseudized with 0 coefficients 


     atomic species   valence    mass     pseudopotential
        C              4.00    12.01070     C ( 1.00)

      8 Sym. Ops. (no inversion) found



   Cartesian axes

     site n.     atom                  positions (alat units)
         1           C   tau(   1) = (   0.5000000   0.5000000  -0.0000988  )
         2           C   tau(   2) = (   0.5000000   0.5000000   0.0625851  )

     number of k points=    22
                       cart. coord. in units 2pi/alat
        k(    1) = (   0.0000000   0.0000000   0.0000000), wk =   0.1000000
        k(    2) = (   0.0000000   0.0000000  -3.8971383), wk =   0.0000000
        k(    3) = (   0.0000000   0.0000000   0.3897138), wk =   0.2000000
        k(    4) = (   0.0000000   0.0000000  -3.5074245), wk =   0.0000000
        k(    5) = (   0.0000000   0.0000000   0.7794277), wk =   0.2000000
        k(    6) = (   0.0000000   0.0000000  -3.1177106), wk =   0.0000000
        k(    7) = (   0.0000000   0.0000000   1.1691415), wk =   0.2000000
        k(    8) = (   0.0000000   0.0000000  -2.7279968), wk =   0.0000000
        k(    9) = (   0.0000000   0.0000000   1.5588553), wk =   0.2000000
        k(   10) = (   0.0000000   0.0000000  -2.3382830), wk =   0.0000000
        k(   11) = (   0.0000000   0.0000000   1.9485691), wk =   0.2000000
        k(   12) = (   0.0000000   0.0000000  -1.9485691), wk =   0.0000000
        k(   13) = (   0.0000000   0.0000000   2.3382830), wk =   0.2000000
        k(   14) = (   0.0000000   0.0000000  -1.5588553), wk =   0.0000000
        k(   15) = (   0.0000000   0.0000000   2.7279968), wk =   0.2000000
        k(   16) = (   0.0000000   0.0000000  -1.1691415), wk =   0.0000000
        k(   17) = (   0.0000000   0.0000000   3.1177106), wk =   0.2000000
        k(   18) = (   0.0000000   0.0000000  -0.7794277), wk =   0.0000000
        k(   19) = (   0.0000000   0.0000000   3.5074245), wk =   0.2000000
        k(   20) = (   0.0000000   0.0000000  -0.3897138), wk =   0.0000000
        k(   21) = (   0.0000000   0.0000000  -3.8971383), wk =   0.1000000
        k(   22) = (   0.0000000   0.0000000  -7.7942766), wk =   0.0000000

     Dense  grid:  1307799 G-vectors     FFT dimensions: ( 270, 270,  36)

     Smooth grid:   330385 G-vectors     FFT dimensions: ( 180, 180,  24)

     Estimated max dynamical RAM per process >      92.09 MB

     Estimated total dynamical RAM >       2.52 GB

     The potential is recalculated from file :
     ./_ph0/carbyne.q_11/carbyne.save/charge-density


     negative rho (up, down):  5.469E-04 0.000E+00
     Starting wfcs are    8 atomic wfcs
     Checking if some PAW data can be deallocated... 

     Band Structure Calculation
     Davidson diagonalization with overlap

     ethr =  1.25E-10,  avg # of iterations = 39.0

     total cpu time spent up to now is      179.6 secs

     End of band structure calculation

          k = 0.0000 0.0000 0.0000 ( 41563 PWs)   bands (ev):

   -21.2595 -14.0554 -10.3185 -10.3185  -0.5158   0.0857   0.1863   0.1863

          k = 0.0000 0.0000-3.8971 ( 41050 PWs)   bands (ev):

   -18.4245 -18.1593  -5.2621  -5.2621  -4.7380  -4.7380   4.5568   4.7319

          k = 0.0000 0.0000 0.3897 ( 41519 PWs)   bands (ev):

   -21.2273 -14.1234 -10.2646 -10.2646  -0.4612   0.1424   0.2433   0.2433

          k = 0.0000 0.0000-3.5074 ( 41035 PWs)   bands (ev):

   -18.8269 -17.7296  -6.0266  -6.0266  -3.8804  -3.8804   3.7481   4.6755

          k = 0.0000 0.0000 0.7794 ( 41483 PWs)   bands (ev):

   -21.1307 -14.3219 -10.1030 -10.1030  -0.2976   0.3126   0.4144   0.4144

          k = 0.0000 0.0000-3.1177 ( 41207 PWs)   bands (ev):

   -19.3019 -17.1745  -6.9072  -6.9072  -2.7223  -2.7223   2.8966   3.7139

          k = 0.0000 0.0000 1.1691 ( 41499 PWs)   bands (ev):

   -20.9708 -14.6360  -9.8340  -9.8340  -0.0253   0.5963   0.6994   0.6994

          k = 0.0000 0.0000-2.7280 ( 41327 PWs)   bands (ev):

   -19.7395 -16.6094  -7.6978  -7.6978  -1.4758  -1.4758   2.1180   2.8643

          k = 0.0000 0.0000 1.5589 ( 41455 PWs)   bands (ev):

   -20.7490 -15.0448  -9.4580  -9.4580   0.3545   0.9934   1.0983   1.0983

          k = 0.0000 0.0000-2.3383 ( 41355 PWs)   bands (ev):

   -20.1299 -16.0534  -8.3885  -8.3885  -0.1626  -0.1626   1.4298   2.1275

          k = 0.0000 0.0000 1.9486 ( 41391 PWs)   bands (ev):

   -20.4677 -15.5249  -8.9758  -8.9758   0.8405   1.1923   1.1923   1.5038

          k = 0.0000 0.0000-1.9486 ( 41391 PWs)   bands (ev):

   -20.4677 -15.5249  -8.9758  -8.9758   0.8405   1.1923   1.1923   1.5038

          k = 0.0000 0.0000 2.3383 ( 41355 PWs)   bands (ev):

   -20.1299 -16.0534  -8.3885  -8.3885  -0.1626  -0.1626   1.4298   2.1275

          k = 0.0000 0.0000-1.5589 ( 41455 PWs)   bands (ev):

   -20.7490 -15.0448  -9.4580  -9.4580   0.3545   0.9934   1.0983   1.0983

          k = 0.0000 0.0000 2.7280 ( 41327 PWs)   bands (ev):

   -19.7395 -16.6094  -7.6978  -7.6978  -1.4758  -1.4758   2.1180   2.8643

          k = 0.0000 0.0000-1.1691 ( 41499 PWs)   bands (ev):

   -20.9708 -14.6360  -9.8340  -9.8340  -0.0253   0.5963   0.6994   0.6994

          k = 0.0000 0.0000 3.1177 ( 41207 PWs)   bands (ev):

   -19.3019 -17.1745  -6.9072  -6.9072  -2.7223  -2.7223   2.8966   3.7139

          k = 0.0000 0.0000-0.7794 ( 41483 PWs)   bands (ev):

   -21.1307 -14.3219 -10.1030 -10.1030  -0.2976   0.3126   0.4144   0.4144

          k = 0.0000 0.0000 3.5074 ( 41035 PWs)   bands (ev):

   -18.8269 -17.7296  -6.0266  -6.0266  -3.8804  -3.8804   3.7481   4.6755

          k = 0.0000 0.0000-0.3897 ( 41519 PWs)   bands (ev):

   -21.2273 -14.1234 -10.2646 -10.2646  -0.4612   0.1424   0.2433   0.2433

          k = 0.0000 0.0000-3.8971 ( 41050 PWs)   bands (ev):

   -18.4245 -18.1593  -5.2621  -5.2621  -4.7380  -4.7380   4.5568   4.7319

          k = 0.0000 0.0000-7.7943 ( 41563 PWs)   bands (ev):

   -21.2595 -14.0554 -10.3185 -10.3185  -0.5158   0.0857   0.1863   0.1863

     highest occupied, lowest unoccupied level (ev):    -5.2621   -4.7380

     Writing output data file ./_ph0/carbyne.q_11/carbyne.save/

     phonons calculation                                                        

     bravais-lattice index     =            0
     lattice parameter (alat)  =      37.7945  a.u.
     unit-cell volume          =    6926.4511 (a.u.)^3
     number of atoms/cell      =            2
     number of atomic types    =            1
     kinetic-energy cut-off    =      50.0000  Ry
     charge density cut-off    =     500.0000  Ry
     convergence threshold     =      1.0E-12
     beta                      =       0.7000
     number of iterations used =            4
     Exchange-correlation= PBE
                           (   1   4   3   4   0   0   0)


     celldm(1)=   37.79452  celldm(2)=    0.00000  celldm(3)=    0.00000
     celldm(4)=    0.00000  celldm(5)=    0.00000  celldm(6)=    0.00000

     crystal axes: (cart. coord. in units of alat)
               a(1) = (  1.0000  0.0000  0.0000 )  
               a(2) = (  0.0000  1.0000  0.0000 )  
               a(3) = (  0.0000  0.0000  0.1283 )  

     reciprocal axes: (cart. coord. in units 2 pi/alat)
               b(1) = (  1.0000  0.0000  0.0000 )  
               b(2) = (  0.0000  1.0000  0.0000 )  
               b(3) = (  0.0000  0.0000  7.7943 )  


     Atoms inside the unit cell: 

     Cartesian axes

     site n.  atom      mass           positions (alat units)
        1     C   12.0107   tau(    1) = (    0.50000    0.50000   -0.00010  )
        2     C   12.0107   tau(    2) = (    0.50000    0.50000    0.06259  )

     Computing dynamical matrix for 
                    q = (   0.0000000   0.0000000  -3.8971383 )
 
      9 Sym.Ops. (with q -> -q+G )


     G cutoff =18091.2258  ( 186829 G-vectors)     FFT grid: (270,270, 36)
     G cutoff = 7236.4903  (  47198 G-vectors)  smooth grid: (180,180, 24)
     number of k points=    22

     PseudoPot. # 1 for C  read from file:
     ./pseudo/C.pbe-n-kjpaw_psl.1.0.0.UPF
     MD5 check sum: 6fec8efd722f5d988670a8dc528584a2
     Pseudo is Projector augmented-wave + core cor, Zval =  4.0
     Generated using "atomic" code by A. Dal Corso  v.5.1.2
     Shape of augmentation charge: PSQ
     Using radial grid of 1073 points,  4 beta functions with: 
                l(1) =   0
                l(2) =   0
                l(3) =   1
                l(4) =   1
     Q(r) pseudized with 0 coefficients 


     Mode symmetry, C_4v (4mm)  point group:


     Atomic displacements:
     There are    4 irreducible representations

     Representation     1      1 modes -  To be done

     Representation     2      1 modes -  To be done

     Representation     3      2 modes -  To be done

     Representation     4      2 modes -  To be done



     Alpha used in Ewald sum =   2.8000

     negative rho (up, down):  5.469E-04 0.000E+00
     PHONON       :  47m10.13s CPU  27m48.71s WALL



     Representation #   1 mode #   1

     Self-consistent Calculation

      iter #   1 total cpu time :  1672.3 secs   av.it.:   6.0
      thresh= 1.000E-02 alpha_mix =  0.700 |ddv_scf|^2 =  3.244E-08

      iter #   2 total cpu time :  1676.4 secs   av.it.:  12.5
      thresh= 1.801E-05 alpha_mix =  0.700 |ddv_scf|^2 =  5.275E-08

      iter #   3 total cpu time :  1680.6 secs   av.it.:  11.8
      thresh= 2.297E-05 alpha_mix =  0.700 |ddv_scf|^2 =  1.962E-09

      iter #   4 total cpu time :  1684.8 secs   av.it.:  11.9
      thresh= 4.430E-06 alpha_mix =  0.700 |ddv_scf|^2 =  1.208E-09

      iter #   5 total cpu time :  1689.0 secs   av.it.:  11.7
      thresh= 3.476E-06 alpha_mix =  0.700 |ddv_scf|^2 =  1.488E-13

     End of self-consistent calculation

     Convergence has been achieved 


     Representation #   2 mode #   2

     Self-consistent Calculation

      iter #   1 total cpu time :  1693.7 secs   av.it.:   6.0
      thresh= 1.000E-02 alpha_mix =  0.700 |ddv_scf|^2 =  3.747E-08

      iter #   2 total cpu time :  1697.8 secs   av.it.:  12.3
      thresh= 1.936E-05 alpha_mix =  0.700 |ddv_scf|^2 =  5.189E-08

      iter #   3 total cpu time :  1702.2 secs   av.it.:  11.8
      thresh= 2.278E-05 alpha_mix =  0.700 |ddv_scf|^2 =  3.371E-09

      iter #   4 total cpu time :  1706.6 secs   av.it.:  11.8
      thresh= 5.806E-06 alpha_mix =  0.700 |ddv_scf|^2 =  1.314E-09

      iter #   5 total cpu time :  1710.4 secs   av.it.:  11.7
      thresh= 3.624E-06 alpha_mix =  0.700 |ddv_scf|^2 =  2.599E-13

     End of self-consistent calculation

     Convergence has been achieved 


     Representation #   3 modes #   3   4

     Self-consistent Calculation

      iter #   1 total cpu time :  1717.9 secs   av.it.:   5.9
      thresh= 1.000E-02 alpha_mix =  0.700 |ddv_scf|^2 =  7.333E-09

      iter #   2 total cpu time :  1725.1 secs   av.it.:  11.4
      thresh= 8.564E-06 alpha_mix =  0.700 |ddv_scf|^2 =  6.532E-10

      iter #   3 total cpu time :  1731.7 secs   av.it.:  10.1
      thresh= 2.556E-06 alpha_mix =  0.700 |ddv_scf|^2 =  1.542E-13

     End of self-consistent calculation

     Convergence has been achieved 


     Representation #   4 modes #   5   6

     Self-consistent Calculation

      iter #   1 total cpu time :  1740.0 secs   av.it.:   5.9
      thresh= 1.000E-02 alpha_mix =  0.700 |ddv_scf|^2 =  6.085E-09

      iter #   2 total cpu time :  1747.1 secs   av.it.:  11.5
      thresh= 7.801E-06 alpha_mix =  0.700 |ddv_scf|^2 =  5.223E-10

      iter #   3 total cpu time :  1753.8 secs   av.it.:  10.4
      thresh= 2.285E-06 alpha_mix =  0.700 |ddv_scf|^2 =  2.896E-13

     End of self-consistent calculation

     Convergence has been achieved 
 
     Number of q in the star =    1
     List of q in the star:
          1   0.000000000   0.000000000  -3.897138293

     Diagonalizing the dynamical matrix

     q = (    0.000000000   0.000000000  -3.897138293 ) 

 **************************************************************************
     freq (    1) =       4.870469 [THz] =     162.461371 [cm-1]
     freq (    2) =       4.870469 [THz] =     162.461371 [cm-1]
     freq (    3) =       9.045944 [THz] =     301.740200 [cm-1]
     freq (    4) =       9.045944 [THz] =     301.740200 [cm-1]
     freq (    5) =      50.174094 [THz] =    1673.627636 [cm-1]
     freq (    6) =      58.620342 [THz] =    1955.364145 [cm-1]
 **************************************************************************

     Mode symmetry, C_4v (4mm)  point group:

     freq (   1-   2) =        162.5  [cm-1]   --> E    G_5 D_5       
     freq (   3-   4) =        301.7  [cm-1]   --> E    G_5 D_5       
     freq (   5-   5) =       1673.6  [cm-1]   --> A_1  G_1 D_1       
     freq (   6-   6) =       1955.4  [cm-1]   --> A_1  G_1 D_1       
 
     init_run     :     32.37s CPU     21.96s WALL (      10 calls)
     electrons    :    292.89s CPU    156.90s WALL (      10 calls)

     Called by init_run:
     wfcinit      :      0.10s CPU      0.10s WALL (      10 calls)
     potinit      :     12.47s CPU      8.45s WALL (      10 calls)
     hinit0       :     10.91s CPU      6.24s WALL (      10 calls)

     Called by electrons:
     c_bands      :    292.88s CPU    156.85s WALL (      10 calls)
     v_of_rho     :      9.63s CPU      5.07s WALL (      11 calls)
     newd         :      1.60s CPU      0.92s WALL (      11 calls)
     PAW_pot      :      0.55s CPU      0.44s WALL (      11 calls)

     Called by c_bands:
     init_us_2    :      2.49s CPU      1.73s WALL (    1486 calls)
     cegterg      :    251.06s CPU    126.90s WALL (     242 calls)

     Called by *egterg:
     cdiaghg      :      9.45s CPU      5.24s WALL (    3937 calls)
     h_psi        :   1015.27s CPU    513.69s WALL (   18941 calls)
     s_psi        :     16.91s CPU      8.62s WALL (   35085 calls)
     g_psi        :      0.81s CPU      0.40s WALL (    3841 calls)

     Called by h_psi:
     h_psi:calbec :     22.15s CPU     11.26s WALL (   18941 calls)
     vloc_psi     :    976.14s CPU    493.73s WALL (   18941 calls)
     add_vuspsi   :     13.98s CPU      7.03s WALL (   18941 calls)

     General routines
     calbec       :     36.48s CPU     18.77s WALL (   39563 calls)
     fft          :    441.53s CPU    225.15s WALL (    6372 calls)
     ffts         :     20.98s CPU     10.80s WALL (    1340 calls)
     fftw         :   1023.98s CPU    518.28s WALL (  174752 calls)
     interpolate  :     65.84s CPU     36.12s WALL (     686 calls)
     davcio       :     18.36s CPU     33.31s WALL (    8537 calls)
 
     Parallel routines
     fft_scatt_xy :    222.12s CPU    112.50s WALL (  182464 calls)
     fft_scatt_yz :    582.82s CPU    294.99s WALL (  182464 calls)
 
     PHONON       :  49m38.11s CPU  29m15.96s WALL

     INITIALIZATION: 
     phq_setup    :      8.89s CPU      5.34s WALL (      11 calls)
     phq_init     :    266.91s CPU    173.53s WALL (      11 calls)
 
     phq_init     :    266.91s CPU    173.53s WALL (      11 calls)
     set_drhoc    :     40.30s CPU     38.86s WALL (      33 calls)
     init_vloc    :      3.96s CPU      2.80s WALL (      11 calls)
     init_us_1    :      0.63s CPU      0.32s WALL (      11 calls)
     newd         :      1.60s CPU      0.92s WALL (      11 calls)
     dvanqq       :    127.91s CPU     77.49s WALL (      11 calls)
     drho         :     72.18s CPU     37.52s WALL (      11 calls)
 
     DYNAMICAL MATRIX:
     dynmat0      :     44.05s CPU     35.96s WALL (      11 calls)
     phqscf       :   2261.84s CPU   1327.11s WALL (      11 calls)
     dynmatrix    :      0.45s CPU      1.01s WALL (      11 calls)
 
     phqscf       :   2261.84s CPU   1327.11s WALL (      11 calls)
     solve_linter :   2248.70s CPU   1318.32s WALL (      44 calls)
     drhodv       :      8.20s CPU      4.32s WALL (      44 calls)
 
     dynmat0      :     44.05s CPU     35.96s WALL (      11 calls)
     dynmat_us    :      3.72s CPU      1.95s WALL (      11 calls)
     d2ionq       :      1.26s CPU      0.65s WALL (      11 calls)
     dynmatcc     :     37.03s CPU     31.23s WALL (      11 calls)
 
     dynmat_us    :      3.72s CPU      1.95s WALL (      11 calls)
     addusdynmat  :      0.00s CPU      0.00s WALL (      11 calls)
 
     phqscf       :   2261.84s CPU   1327.11s WALL (      11 calls)
     solve_linter :   2248.70s CPU   1318.32s WALL (      44 calls)
 
     solve_linter :   2248.70s CPU   1318.32s WALL (      44 calls)
     dvqpsi_us    :     43.13s CPU     21.97s WALL (     324 calls)
     ortho        :      4.17s CPU      2.66s WALL (    1373 calls)
     cgsolve      :    856.24s CPU    433.84s WALL (    1373 calls)
     incdrhoscf   :     98.66s CPU     50.16s WALL (    1373 calls)
     addusddens   :    220.95s CPU    113.49s WALL (     245 calls)
     vpsifft      :     59.43s CPU     30.32s WALL (    1013 calls)
     dv_of_drho   :    308.25s CPU    157.77s WALL (     301 calls)
     mix_pot      :     21.55s CPU     28.53s WALL (     206 calls)
     psymdvscf    :    199.05s CPU    203.16s WALL (     201 calls)
     newdq        :    206.85s CPU    105.17s WALL (     206 calls)
     adddvscf     :      1.97s CPU      1.02s WALL (    1049 calls)
     drhodvus     :      1.47s CPU      6.39s WALL (      44 calls)
 
     dvqpsi_us    :     43.13s CPU     21.97s WALL (     324 calls)
     dvqpsi_us_on :      0.86s CPU      0.45s WALL (     324 calls)
 
     cgsolve      :    856.24s CPU    433.84s WALL (    1373 calls)
     ch_psi       :    836.60s CPU    423.76s WALL (   14762 calls)
 
     ch_psi       :    836.60s CPU    423.76s WALL (   14762 calls)
     h_psi        :   1015.27s CPU    513.69s WALL (   18941 calls)
     last         :     34.16s CPU     17.37s WALL (   14762 calls)
 
     h_psi        :   1015.27s CPU    513.69s WALL (   18941 calls)
     add_vuspsi   :     13.98s CPU      7.03s WALL (   18941 calls)
 
     incdrhoscf   :     98.66s CPU     50.16s WALL (    1373 calls)
     addusdbec    :      2.25s CPU      1.16s WALL (    1679 calls)
 
     drhodvus     :      1.47s CPU      6.39s WALL (      44 calls)
 
      General routines
     calbec       :     36.48s CPU     18.77s WALL (   39563 calls)
     fft          :    441.53s CPU    225.15s WALL (    6372 calls)
     ffts         :     20.98s CPU     10.80s WALL (    1340 calls)
     fftw         :   1023.98s CPU    518.28s WALL (  174752 calls)
     davcio       :     18.36s CPU     33.31s WALL (    8537 calls)
     write_rec    :     15.99s CPU     25.18s WALL (     250 calls)
 
 
     PHONON       :  49m38.11s CPU  29m15.96s WALL

 
   This run was terminated on:  23:22:16  19Jun2021            

=------------------------------------------------------------------------------=
   JOB DONE.
=------------------------------------------------------------------------------=
