 
             +---------------------------------------------------+
             |                                                   |
             |                   WANNIER90                       |
             |                                                   |
             +---------------------------------------------------+
             |                                                   |
             |        Welcome to the Maximally-Localized         |
             |        Generalized Wannier Functions code         |
             |            http://www.wannier.org                 |
             |                                                   |
             |                                                   |
             |  Wannier90 Developer Group:                       |
             |    Giovanni Pizzi    (EPFL)                       |
             |    Valerio Vitale    (Cambridge)                  |
             |    David Vanderbilt  (Rutgers University)         |
             |    Nicola Marzari    (EPFL)                       |
             |    Ivo Souza         (Universidad del Pais Vasco) |
             |    Arash A. Mostofi  (Imperial College London)    |
             |    Jonathan R. Yates (University of Oxford)       |
             |                                                   |
             |  For the full list of Wannier90 3.x authors,      |
             |  please check the code documentation and the      |
             |  README on the GitHub page of the code            |
             |                                                   |
             |                                                   |
             |  Please cite                                      |
             |                                                   |
             |  [ref] "Wannier90 as a community code:            |
             |        new features and applications",            |
             |        G. Pizzi et al., J. Phys. Cond. Matt. 32,  |
             |        165902 (2020).                             |
             |        http://doi.org/10.1088/1361-648X/ab51ff    |
             |                                                   |
             |  in any publications arising from the use of      |
             |  this code. For the method please cite            |
             |                                                   |
             |  [ref] "Maximally Localized Generalised Wannier   |
             |         Functions for Composite Energy Bands"     |
             |         N. Marzari and D. Vanderbilt              |
             |         Phys. Rev. B 56 12847 (1997)              |
             |                                                   |
             |  [ref] "Maximally Localized Wannier Functions     |
             |         for Entangled Energy Bands"               |
             |         I. Souza, N. Marzari and D. Vanderbilt    |
             |         Phys. Rev. B 65 035109 (2001)             |
             |                                                   |
             |                                                   |
             | Copyright (c) 1996-2020                           |
             |        The Wannier90 Developer Group and          |
             |        individual contributors                    |
             |                                                   |
             |      Release: 3.1.0        5th March    2020      |
             |                                                   |
             | This program is free software; you can            |
             | redistribute it and/or modify it under the terms  |
             | of the GNU General Public License as published by |
             | the Free Software Foundation; either version 2 of |
             | the License, or (at your option) any later version|
             |                                                   |
             | This program is distributed in the hope that it   |
             | will be useful, but WITHOUT ANY WARRANTY; without |
             | even the implied warranty of MERCHANTABILITY or   |
             | FITNESS FOR A PARTICULAR PURPOSE. See the GNU     |
             | General Public License for more details.          |
             |                                                   |
             | You should have received a copy of the GNU General|
             | Public License along with this program; if not,   |
             | write to the Free Software Foundation, Inc.,      |
             | 675 Mass Ave, Cambridge, MA 02139, USA.           |
             |                                                   |
             +---------------------------------------------------+
             |    Execution started on 24Jun2021 at 21:40:48     |
             +---------------------------------------------------+
 
 ******************************************************************************
 * -> Using CODATA 2006 constant values                                       *
 *    (http://physics.nist.gov/cuu/Constants/index.html)                      *
 * -> Using Bohr value from CODATA                                            *
 ******************************************************************************
 

 Running in serial (with serial executable)
 
                                    ------
                                    SYSTEM
                                    ------
 
                              Lattice Vectors (Ang)
                    a_1     2.565542   0.000000   0.000000
                    a_2     0.000000  10.000000   0.000000
                    a_3     0.000000   0.000000  10.000000
 
                   Unit Cell Volume:     256.55420  (Ang^3)
 
                        Reciprocal-Space Vectors (Ang^-1)
                    b_1     2.449067   0.000000   0.000000
                    b_2     0.000000   0.628319   0.000000
                    b_3     0.000000   0.000000   0.628319
  
 *----------------------------------------------------------------------------*
 |   Site       Fractional Coordinate          Cartesian Coordinate (Ang)     |
 +----------------------------------------------------------------------------+
 | C    1   0.00015   0.50000   0.50000   |    0.00039   5.00000   5.00000    |
 | C    2   0.49282   0.50000   0.50000   |    1.26436   5.00000   5.00000    |
 *----------------------------------------------------------------------------*
                                ------------
                                K-POINT GRID
                                ------------
  
             Grid size =100 x  1 x  1      Total points =  100
  
  
 *---------------------------------- MAIN ------------------------------------*
 |  Number of Wannier Functions               :                 4             |
 |  Number of Objective Wannier Functions     :                 4             |
 |  Number of input Bloch states              :                54             |
 |  Output verbosity (1=low, 5=high)          :                 1             |
 |  Timing Level (1=low, 5=high)              :                 1             |
 |  Optimisation (0=memory, 3=speed)          :                 3             |
 |  Length Unit                               :               Ang             |
 |  Post-processing setup (write *.nnkp)      :                 F             |
 |  Using Gamma-only branch of algorithms     :                 F             |
 |  Wavefunction (UNK) file-type              :       unformatted             |
 |  Wavefunction spin channel                 :                up             |
 *----------------------------------------------------------------------------*
 *------------------------------- WANNIERISE ---------------------------------*
 |  Total number of iterations                :              1000             |
 |  Number of CG steps before reset           :                 5             |
 |  Trial step length for line search         :             2.000             |
 |  Convergence tolerence                     :         0.100E-09             |
 |  Convergence window                        :                -1             |
 |  Iterations between writing output         :                 1             |
 |  Iterations between backing up to disk     :               100             |
 |  Write r^2_nm to file                      :                 F             |
 |  Write xyz WF centres to file              :                 F             |
 |  Write on-site energies <0n|H|0n> to file  :                 F             |
 |  Use guiding centre to control phases      :                 T             |
 |  Use phases for initial projections        :                 F             |
 |  Iterations before starting guiding centres:                 0             |
 |  Iterations between using guiding centres  :                 1             |
 *----------------------------------------------------------------------------*
 *------------------------------- DISENTANGLE --------------------------------*
 |  Using band disentanglement                :                 T             |
 |  Total number of iterations                :              1000             |
 |  Mixing ratio                              :             0.500             |
 |  Convergence tolerence                     :         1.000E-10             |
 |  Convergence window                        :                 3             |
 *----------------------------------------------------------------------------*
 *-------------------------------- PLOTTING ----------------------------------*
 |  Plotting Wannier functions                :                 T             |
 |   Size of supercell for plotting           :     5x    1x    1             |
 |   Plotting mode (molecule or crystal)      :           crystal             |
 |   Plotting format                          :          xcrysden             |
 *----------------------------------------------------------------------------*
 Time to read parameters        0.042 (sec)

 *---------------------------------- K-MESH ----------------------------------*
 +----------------------------------------------------------------------------+
 |                    Distance to Nearest-Neighbour Shells                    |
 |                    ------------------------------------                    |
 |          Shell             Distance (Ang^-1)          Multiplicity         |
 |          -----             -----------------          ------------         |
 |             1                   0.024491                      2            |
 |             2                   0.048981                      2            |
 |             3                   0.073472                      2            |
 |             4                   0.097963                      2            |
 |             5                   0.122453                      2            |
 |             6                   0.146944                      2            |
 |             7                   0.171435                      2            |
 |             8                   0.195925                      2            |
 |             9                   0.220416                      2            |
 |            10                   0.244907                      2            |
 |            11                   0.269397                      2            |
 |            12                   0.293888                      2            |
 |            13                   0.318379                      2            |
 |            14                   0.342869                      2            |
 |            15                   0.367360                      2            |
 |            16                   0.391851                      2            |
 |            17                   0.416341                      2            |
 |            18                   0.440832                      2            |
 |            19                   0.465323                      2            |
 |            20                   0.489813                      2            |
 |            21                   0.514304                      2            |
 |            22                   0.538795                      2            |
 |            23                   0.563286                      2            |
 |            24                   0.587776                      2            |
 |            25                   0.612267                      2            |
 |            26                   0.628319                      4            |
 |            27                   0.628796                      8            |
 |            28                   0.630225                      8            |
 |            29                   0.632600                      8            |
 |            30                   0.635909                      8            |
 |            31                   0.636758                      2            |
 |            32                   0.640140                      8            |
 |            33                   0.645273                      8            |
 |            34                   0.651286                      8            |
 |            35                   0.658157                      8            |
 |            36                   0.661248                      2            |
 +----------------------------------------------------------------------------+
 | The b-vectors are chosen automatically                                     |
 | The following shells are used:   1, 26                                     |
 +----------------------------------------------------------------------------+
 |                        Shell   # Nearest-Neighbours                        |
 |                        -----   --------------------                        |
 |                          1               2                                 |
 |                         26               4                                 |
 +----------------------------------------------------------------------------+
 | Completeness relation is fully satisfied [Eq. (B1), PRB 56, 12847 (1997)]  |
 +----------------------------------------------------------------------------+
 |                  b_k Vectors (Ang^-1) and Weights (Ang^2)                  |
 |                  ----------------------------------------                  |
 |            No.         b_k(x)      b_k(y)      b_k(z)        w_b           |
 |            ---        --------------------------------     --------        |
 |             1         0.024491    0.000000    0.000000   833.620765        |
 |             2        -0.024491    0.000000    0.000000   833.620765        |
 |             3         0.000000    0.628319    0.000000     1.266515        |
 |             4         0.000000    0.000000    0.628319     1.266515        |
 |             5         0.000000    0.000000   -0.628319     1.266515        |
 |             6         0.000000   -0.628319    0.000000     1.266515        |
 +----------------------------------------------------------------------------+
 |                           b_k Directions (Ang^-1)                          |
 |                           -----------------------                          |
 |            No.           x           y           z                         |
 |            ---        --------------------------------                     |
 |             1         0.024491    0.000000    0.000000                     |
 |             2         0.000000    0.628319    0.000000                     |
 |             3         0.000000    0.000000    0.628319                     |
 +----------------------------------------------------------------------------+
  
 Time to get kmesh              0.069 (sec)
 *============================================================================*
 |                              MEMORY ESTIMATE                               |
 |         Maximum RAM allocated during each phase of the calculation         |
 *============================================================================*
 |                        Disentanglement           36.52 Mb                  |
 |                            Wannierise:            0.89 Mb                  |
 |                          plot_wannier:            0.89 Mb                  |
 *----------------------------------------------------------------------------*
  
 Starting a new Wannier90 calculation ...


 Reading overlaps from carbyne.mmn    :  Created on 24Jun2021 at 21:35:10

 Reading projections from carbyne.amn :  Created on 24Jun2021 at 21:34:23

 Time to read overlaps          1.241 (sec)

 *------------------------------- DISENTANGLE --------------------------------*
 +----------------------------------------------------------------------------+
 |                              Energy  Windows                               |
 |                              ---------------                               |
 |                   Outer:   -9.73344  to   21.79197  (eV)                   |
 |                   Inner:   -9.73344  to   -0.20000  (eV)                   |
 +----------------------------------------------------------------------------+
   Number of target bands to extract:    4

                   Unitarised projection of Wannier functions                  
                   ------------------------------------------                  
   A_mn = <psi_m|g_n> --> S = A.A^+ --> U = S^-1/2.A
   In dis_project... done
   Using an inner window (linner = T)
   In dis_proj_froz... done

                   Extraction of optimally-connected subspace                  
                   ------------------------------------------                  
 +---------------------------------------------------------------------+<-- DIS
 |  Iter     Omega_I(i-1)      Omega_I(i)      Delta (frac.)    Time   |<-- DIS
 +---------------------------------------------------------------------+<-- DIS
       1       5.48565043       4.58422933       1.966E-01      0.00    <-- DIS
       2       4.81858995       4.33924561       1.105E-01      0.04    <-- DIS
       3       4.56445363       4.23479365       7.785E-02      0.08    <-- DIS
       4       4.38253404       4.16199288       5.299E-02      0.13    <-- DIS
       5       4.25802787       4.10660337       3.687E-02      0.17    <-- DIS
       6       4.17083296       4.06241810       2.669E-02      0.21    <-- DIS
       7       4.10726093       4.02591799       2.020E-02      0.25    <-- DIS
       8       4.05880945       3.99493741       1.599E-02      0.29    <-- DIS
       9       4.02028970       3.96807696       1.316E-02      0.33    <-- DIS
      10       3.98851923       3.94439599       1.119E-02      0.38    <-- DIS
      11       3.96151457       3.92323989       9.756E-03      0.42    <-- DIS
      12       3.93801047       3.90413870       8.676E-03      0.46    <-- DIS
      13       3.91717660       3.88674536       7.829E-03      0.50    <-- DIS
      14       3.89845048       3.87079695       7.144E-03      0.54    <-- DIS
      15       3.88143818       3.85608966       6.574E-03      0.58    <-- DIS
      16       3.86585447       3.84246214       6.088E-03      0.62    <-- DIS
      17       3.85148613       3.82978429       5.667E-03      0.66    <-- DIS
      18       3.83816909       3.81794939       5.296E-03      0.70    <-- DIS
      19       3.82577372       3.80686862       4.966E-03      0.75    <-- DIS
      20       3.81419524       3.79646704       4.670E-03      0.79    <-- DIS
      21       3.80334726       3.78668069       4.401E-03      0.83    <-- DIS
      22       3.79315737       3.77745439       4.157E-03      0.87    <-- DIS
      23       3.78356397       3.76874012       3.933E-03      0.91    <-- DIS
      24       3.77451403       3.76049573       3.728E-03      0.95    <-- DIS
      25       3.76596139       3.75268395       3.538E-03      0.99    <-- DIS
      26       3.75786557       3.74527165       3.363E-03      1.03    <-- DIS
      27       3.75019073       3.73822917       3.200E-03      1.07    <-- DIS
      28       3.74290497       3.73152987       3.048E-03      1.11    <-- DIS
      29       3.73597971       3.72514967       2.907E-03      1.16    <-- DIS
      30       3.72938924       3.71906676       2.776E-03      1.20    <-- DIS
      31       3.72311029       3.71326129       2.652E-03      1.24    <-- DIS
      32       3.71712176       3.70771513       2.537E-03      1.28    <-- DIS
      33       3.71140442       3.70241171       2.429E-03      1.32    <-- DIS
      34       3.70594071       3.69733582       2.327E-03      1.36    <-- DIS
      35       3.70071452       3.69247345       2.232E-03      1.40    <-- DIS
      36       3.69571108       3.68781170       2.142E-03      1.44    <-- DIS
      37       3.69091677       3.68333865       2.057E-03      1.48    <-- DIS
      38       3.68631903       3.67904328       1.978E-03      1.53    <-- DIS
      39       3.68190625       3.67491536       1.902E-03      1.57    <-- DIS
      40       3.67766769       3.67094540       1.831E-03      1.61    <-- DIS
      41       3.67359337       3.66712459       1.764E-03      1.65    <-- DIS
      42       3.66967404       3.66344471       1.700E-03      1.69    <-- DIS
      43       3.66590107       3.65989810       1.640E-03      1.73    <-- DIS
      44       3.66226646       3.65647763       1.583E-03      1.77    <-- DIS
      45       3.65876270       3.65317661       1.529E-03      1.81    <-- DIS
      46       3.65538283       3.64998882       1.478E-03      1.86    <-- DIS
      47       3.65212030       3.64690840       1.429E-03      1.90    <-- DIS
      48       3.64896903       3.64392988       1.383E-03      1.94    <-- DIS
      49       3.64592328       3.64104813       1.339E-03      1.98    <-- DIS
      50       3.64297770       3.63825834       1.297E-03      2.02    <-- DIS
      51       3.64012727       3.63555598       1.257E-03      2.06    <-- DIS
      52       3.63736726       3.63293679       1.220E-03      2.10    <-- DIS
      53       3.63469324       3.63039678       1.183E-03      2.14    <-- DIS
      54       3.63210104       3.62793218       1.149E-03      2.18    <-- DIS
      55       3.62958674       3.62553945       1.116E-03      2.23    <-- DIS
      56       3.62714665       3.62321523       1.085E-03      2.27    <-- DIS
      57       3.62477729       3.62095639       1.055E-03      2.31    <-- DIS
      58       3.62247538       3.61875994       1.027E-03      2.35    <-- DIS
      59       3.62023784       3.61662308       9.995E-04      2.39    <-- DIS
      60       3.61806173       3.61454316       9.734E-04      2.43    <-- DIS
      61       3.61594431       3.61251767       9.485E-04      2.47    <-- DIS
      62       3.61388297       3.61054424       9.247E-04      2.51    <-- DIS
      63       3.61187525       3.60862062       9.019E-04      2.55    <-- DIS
      64       3.60991883       3.60674471       8.801E-04      2.59    <-- DIS
      65       3.60801150       3.60491448       8.591E-04      2.63    <-- DIS
      66       3.60615118       3.60312803       8.390E-04      2.68    <-- DIS
      67       3.60433590       3.60138357       8.198E-04      2.72    <-- DIS
      68       3.60256378       3.59967937       8.013E-04      2.76    <-- DIS
      69       3.60083307       3.59801383       7.836E-04      2.80    <-- DIS
      70       3.59914206       3.59638539       7.665E-04      2.84    <-- DIS
      71       3.59748918       3.59479261       7.501E-04      2.88    <-- DIS
      72       3.59587291       3.59323409       7.344E-04      2.92    <-- DIS
      73       3.59429181       3.59170851       7.192E-04      2.96    <-- DIS
      74       3.59274452       3.59021463       7.047E-04      3.00    <-- DIS
      75       3.59122975       3.58875125       6.906E-04      3.04    <-- DIS
      76       3.58974626       3.58731725       6.771E-04      3.08    <-- DIS
      77       3.58829288       3.58591153       6.641E-04      3.12    <-- DIS
      78       3.58686850       3.58453309       6.515E-04      3.16    <-- DIS
      79       3.58547207       3.58318094       6.394E-04      3.20    <-- DIS
      80       3.58410256       3.58185415       6.277E-04      3.25    <-- DIS
      81       3.58275903       3.58055185       6.164E-04      3.29    <-- DIS
      82       3.58144056       3.57927318       6.055E-04      3.33    <-- DIS
      83       3.58014628       3.57801734       5.950E-04      3.37    <-- DIS
      84       3.57887535       3.57678357       5.848E-04      3.41    <-- DIS
      85       3.57762699       3.57557113       5.750E-04      3.45    <-- DIS
      86       3.57640045       3.57437932       5.654E-04      3.49    <-- DIS
      87       3.57519499       3.57320749       5.562E-04      3.53    <-- DIS
      88       3.57400994       3.57205499       5.473E-04      3.57    <-- DIS
      89       3.57284464       3.57092121       5.386E-04      3.61    <-- DIS
      90       3.57169846       3.56980558       5.302E-04      3.65    <-- DIS
      91       3.57057080       3.56870753       5.221E-04      3.69    <-- DIS
      92       3.56946110       3.56762655       5.142E-04      3.73    <-- DIS
      93       3.56836879       3.56656211       5.066E-04      3.77    <-- DIS
      94       3.56729337       3.56551374       4.991E-04      3.82    <-- DIS
      95       3.56623434       3.56448098       4.919E-04      3.86    <-- DIS
      96       3.56519120       3.56346336       4.849E-04      3.90    <-- DIS
      97       3.56416351       3.56246047       4.781E-04      3.94    <-- DIS
      98       3.56315083       3.56147191       4.714E-04      3.98    <-- DIS
      99       3.56215273       3.56049727       4.650E-04      4.02    <-- DIS
     100       3.56116882       3.55953619       4.587E-04      4.06    <-- DIS
     101       3.56019870       3.55858829       4.525E-04      4.10    <-- DIS
     102       3.55924201       3.55765325       4.466E-04      4.14    <-- DIS
     103       3.55829839       3.55673073       4.408E-04      4.18    <-- DIS
     104       3.55736751       3.55582040       4.351E-04      4.22    <-- DIS
     105       3.55644903       3.55492196       4.296E-04      4.26    <-- DIS
     106       3.55554265       3.55403513       4.242E-04      4.30    <-- DIS
     107       3.55464805       3.55315961       4.189E-04      4.34    <-- DIS
     108       3.55376496       3.55229514       4.138E-04      4.38    <-- DIS
     109       3.55289309       3.55144146       4.087E-04      4.42    <-- DIS
     110       3.55203217       3.55059831       4.038E-04      4.46    <-- DIS
     111       3.55118195       3.54976545       3.990E-04      4.51    <-- DIS
     112       3.55034219       3.54894266       3.944E-04      4.55    <-- DIS
     113       3.54951263       3.54812970       3.898E-04      4.59    <-- DIS
     114       3.54869306       3.54732637       3.853E-04      4.63    <-- DIS
     115       3.54788325       3.54653245       3.809E-04      4.67    <-- DIS
     116       3.54708299       3.54574774       3.766E-04      4.71    <-- DIS
     117       3.54629207       3.54497205       3.724E-04      4.75    <-- DIS
     118       3.54551030       3.54420520       3.682E-04      4.79    <-- DIS
     119       3.54473748       3.54344700       3.642E-04      4.83    <-- DIS
     120       3.54397344       3.54269729       3.602E-04      4.87    <-- DIS
     121       3.54321799       3.54195589       3.563E-04      4.91    <-- DIS
     122       3.54247097       3.54122263       3.525E-04      4.95    <-- DIS
     123       3.54173220       3.54049738       3.488E-04      4.99    <-- DIS
     124       3.54100152       3.53977997       3.451E-04      5.03    <-- DIS
     125       3.54027879       3.53907025       3.415E-04      5.07    <-- DIS
     126       3.53956385       3.53836809       3.379E-04      5.11    <-- DIS
     127       3.53885656       3.53767335       3.345E-04      5.15    <-- DIS
     128       3.53815678       3.53698589       3.310E-04      5.19    <-- DIS
     129       3.53746436       3.53630560       3.277E-04      5.23    <-- DIS
     130       3.53677919       3.53563233       3.244E-04      5.27    <-- DIS
     131       3.53610114       3.53496598       3.211E-04      5.32    <-- DIS
     132       3.53543007       3.53430642       3.179E-04      5.36    <-- DIS
     133       3.53476588       3.53365354       3.148E-04      5.40    <-- DIS
     134       3.53410844       3.53300724       3.117E-04      5.44    <-- DIS
     135       3.53345764       3.53236740       3.086E-04      5.48    <-- DIS
     136       3.53281338       3.53173391       3.056E-04      5.52    <-- DIS
     137       3.53217555       3.53110669       3.027E-04      5.56    <-- DIS
     138       3.53154404       3.53048563       2.998E-04      5.60    <-- DIS
     139       3.53091875       3.52987064       2.969E-04      5.64    <-- DIS
     140       3.53029960       3.52926162       2.941E-04      5.68    <-- DIS
     141       3.52968648       3.52865849       2.913E-04      5.72    <-- DIS
     142       3.52907930       3.52806115       2.886E-04      5.76    <-- DIS
     143       3.52847798       3.52746952       2.859E-04      5.80    <-- DIS
     144       3.52788242       3.52688352       2.832E-04      5.84    <-- DIS
     145       3.52729255       3.52630306       2.806E-04      5.88    <-- DIS
     146       3.52670827       3.52572807       2.780E-04      5.92    <-- DIS
     147       3.52612952       3.52515848       2.755E-04      5.96    <-- DIS
     148       3.52555620       3.52459420       2.729E-04      6.00    <-- DIS
     149       3.52498825       3.52403516       2.705E-04      6.04    <-- DIS
     150       3.52442560       3.52348130       2.680E-04      6.08    <-- DIS
     151       3.52386816       3.52293253       2.656E-04      6.12    <-- DIS
     152       3.52331586       3.52238881       2.632E-04      6.16    <-- DIS
     153       3.52276865       3.52185004       2.608E-04      6.21    <-- DIS
     154       3.52222645       3.52131619       2.585E-04      6.25    <-- DIS
     155       3.52168920       3.52078717       2.562E-04      6.29    <-- DIS
     156       3.52115682       3.52026293       2.539E-04      6.33    <-- DIS
     157       3.52062927       3.51974340       2.517E-04      6.37    <-- DIS
     158       3.52010647       3.51922854       2.495E-04      6.41    <-- DIS
     159       3.51958837       3.51871828       2.473E-04      6.45    <-- DIS
     160       3.51907491       3.51821255       2.451E-04      6.49    <-- DIS
     161       3.51856603       3.51771132       2.430E-04      6.53    <-- DIS
     162       3.51806167       3.51721452       2.409E-04      6.57    <-- DIS
     163       3.51756179       3.51672210       2.388E-04      6.61    <-- DIS
     164       3.51706632       3.51623402       2.367E-04      6.65    <-- DIS
     165       3.51657521       3.51575020       2.347E-04      6.69    <-- DIS
     166       3.51608842       3.51527062       2.326E-04      6.73    <-- DIS
     167       3.51560588       3.51479521       2.306E-04      6.77    <-- DIS
     168       3.51512756       3.51432394       2.287E-04      6.81    <-- DIS
     169       3.51465340       3.51385674       2.267E-04      6.85    <-- DIS
     170       3.51418336       3.51339359       2.248E-04      6.89    <-- DIS
     171       3.51371738       3.51293442       2.229E-04      6.93    <-- DIS
     172       3.51325542       3.51247921       2.210E-04      6.97    <-- DIS
     173       3.51279744       3.51202789       2.191E-04      7.01    <-- DIS
     174       3.51234340       3.51158044       2.173E-04      7.05    <-- DIS
     175       3.51189324       3.51113680       2.154E-04      7.09    <-- DIS
     176       3.51144693       3.51069694       2.136E-04      7.13    <-- DIS
     177       3.51100442       3.51026082       2.118E-04      7.18    <-- DIS
     178       3.51056568       3.50982839       2.101E-04      7.22    <-- DIS
     179       3.51013066       3.50939962       2.083E-04      7.26    <-- DIS
     180       3.50969932       3.50897446       2.066E-04      7.30    <-- DIS
     181       3.50927162       3.50855289       2.049E-04      7.34    <-- DIS
     182       3.50884753       3.50813485       2.032E-04      7.38    <-- DIS
     183       3.50842701       3.50772032       2.015E-04      7.42    <-- DIS
     184       3.50801002       3.50730926       1.998E-04      7.46    <-- DIS
     185       3.50759652       3.50690164       1.981E-04      7.50    <-- DIS
     186       3.50718647       3.50649741       1.965E-04      7.54    <-- DIS
     187       3.50677985       3.50609654       1.949E-04      7.58    <-- DIS
     188       3.50637662       3.50569900       1.933E-04      7.62    <-- DIS
     189       3.50597674       3.50530476       1.917E-04      7.66    <-- DIS
     190       3.50558017       3.50491378       1.901E-04      7.70    <-- DIS
     191       3.50518690       3.50452604       1.886E-04      7.74    <-- DIS
     192       3.50479687       3.50414149       1.870E-04      7.78    <-- DIS
     193       3.50441007       3.50376010       1.855E-04      7.82    <-- DIS
     194       3.50402645       3.50338185       1.840E-04      7.86    <-- DIS
     195       3.50364599       3.50300671       1.825E-04      7.90    <-- DIS
     196       3.50326865       3.50263464       1.810E-04      7.94    <-- DIS
     197       3.50289441       3.50226561       1.795E-04      7.98    <-- DIS
     198       3.50252324       3.50189960       1.781E-04      8.02    <-- DIS
     199       3.50215510       3.50153658       1.766E-04      8.07    <-- DIS
     200       3.50178996       3.50117651       1.752E-04      8.11    <-- DIS
     201       3.50142780       3.50081937       1.738E-04      8.15    <-- DIS
     202       3.50106860       3.50046514       1.724E-04      8.19    <-- DIS
     203       3.50071231       3.50011377       1.710E-04      8.23    <-- DIS
     204       3.50035891       3.49976526       1.696E-04      8.27    <-- DIS
     205       3.50000838       3.49941956       1.683E-04      8.31    <-- DIS
     206       3.49966069       3.49907665       1.669E-04      8.35    <-- DIS
     207       3.49931581       3.49873652       1.656E-04      8.39    <-- DIS
     208       3.49897371       3.49839912       1.642E-04      8.43    <-- DIS
     209       3.49863438       3.49806444       1.629E-04      8.47    <-- DIS
     210       3.49829777       3.49773246       1.616E-04      8.51    <-- DIS
     211       3.49796388       3.49740313       1.603E-04      8.55    <-- DIS
     212       3.49763267       3.49707645       1.591E-04      8.59    <-- DIS
     213       3.49730412       3.49675239       1.578E-04      8.63    <-- DIS
     214       3.49697820       3.49643092       1.565E-04      8.67    <-- DIS
     215       3.49665489       3.49611202       1.553E-04      8.71    <-- DIS
     216       3.49633417       3.49579567       1.540E-04      8.75    <-- DIS
     217       3.49601601       3.49548184       1.528E-04      8.80    <-- DIS
     218       3.49570039       3.49517051       1.516E-04      8.84    <-- DIS
     219       3.49538728       3.49486166       1.504E-04      8.88    <-- DIS
     220       3.49507668       3.49455526       1.492E-04      8.92    <-- DIS
     221       3.49476854       3.49425130       1.480E-04      8.96    <-- DIS
     222       3.49446285       3.49394975       1.469E-04      9.00    <-- DIS
     223       3.49415959       3.49365059       1.457E-04      9.04    <-- DIS
     224       3.49385873       3.49335380       1.445E-04      9.08    <-- DIS
     225       3.49356026       3.49305936       1.434E-04      9.12    <-- DIS
     226       3.49326415       3.49276725       1.423E-04      9.16    <-- DIS
     227       3.49297038       3.49247744       1.411E-04      9.20    <-- DIS
     228       3.49267894       3.49218992       1.400E-04      9.24    <-- DIS
     229       3.49238980       3.49190467       1.389E-04      9.28    <-- DIS
     230       3.49210293       3.49162166       1.378E-04      9.32    <-- DIS
     231       3.49181833       3.49134089       1.368E-04      9.36    <-- DIS
     232       3.49153597       3.49106231       1.357E-04      9.40    <-- DIS
     233       3.49125583       3.49078593       1.346E-04      9.44    <-- DIS
     234       3.49097789       3.49051172       1.336E-04      9.48    <-- DIS
     235       3.49070213       3.49023965       1.325E-04      9.52    <-- DIS
     236       3.49042854       3.48996972       1.315E-04      9.56    <-- DIS
     237       3.49015710       3.48970191       1.304E-04      9.61    <-- DIS
     238       3.48988778       3.48943618       1.294E-04      9.65    <-- DIS
     239       3.48962056       3.48917254       1.284E-04      9.69    <-- DIS
     240       3.48935544       3.48891095       1.274E-04      9.73    <-- DIS
     241       3.48909239       3.48865141       1.264E-04      9.77    <-- DIS
     242       3.48883140       3.48839389       1.254E-04      9.81    <-- DIS
     243       3.48857244       3.48813838       1.244E-04      9.85    <-- DIS
     244       3.48831550       3.48788486       1.235E-04      9.89    <-- DIS
     245       3.48806056       3.48763331       1.225E-04      9.93    <-- DIS
     246       3.48780761       3.48738372       1.216E-04      9.97    <-- DIS
     247       3.48755663       3.48713606       1.206E-04     10.01    <-- DIS
     248       3.48730759       3.48689033       1.197E-04     10.05    <-- DIS
     249       3.48706050       3.48664651       1.187E-04     10.09    <-- DIS
     250       3.48681532       3.48640458       1.178E-04     10.13    <-- DIS
     251       3.48657204       3.48616452       1.169E-04     10.17    <-- DIS
     252       3.48633065       3.48592632       1.160E-04     10.21    <-- DIS
     253       3.48609113       3.48568997       1.151E-04     10.25    <-- DIS
     254       3.48585346       3.48545544       1.142E-04     10.29    <-- DIS
     255       3.48561763       3.48522273       1.133E-04     10.34    <-- DIS
     256       3.48538363       3.48499181       1.124E-04     10.38    <-- DIS
     257       3.48515144       3.48476268       1.116E-04     10.42    <-- DIS
     258       3.48492103       3.48453531       1.107E-04     10.46    <-- DIS
     259       3.48469241       3.48430970       1.098E-04     10.50    <-- DIS
     260       3.48446555       3.48408582       1.090E-04     10.54    <-- DIS
     261       3.48424044       3.48386367       1.081E-04     10.58    <-- DIS
     262       3.48401706       3.48364323       1.073E-04     10.62    <-- DIS
     263       3.48379540       3.48342448       1.065E-04     10.66    <-- DIS
     264       3.48357545       3.48320742       1.057E-04     10.70    <-- DIS
     265       3.48335719       3.48299202       1.048E-04     10.74    <-- DIS
     266       3.48314061       3.48277828       1.040E-04     10.78    <-- DIS
     267       3.48292569       3.48256618       1.032E-04     10.82    <-- DIS
     268       3.48271242       3.48235570       1.024E-04     10.86    <-- DIS
     269       3.48250079       3.48214684       1.016E-04     10.90    <-- DIS
     270       3.48229078       3.48193958       1.009E-04     10.95    <-- DIS
     271       3.48208238       3.48173390       1.001E-04     10.99    <-- DIS
     272       3.48187557       3.48152980       9.932E-05     11.03    <-- DIS
     273       3.48167035       3.48132726       9.855E-05     11.07    <-- DIS
     274       3.48146670       3.48112627       9.779E-05     11.11    <-- DIS
     275       3.48126461       3.48092681       9.704E-05     11.15    <-- DIS
     276       3.48106406       3.48072888       9.630E-05     11.19    <-- DIS
     277       3.48086504       3.48053245       9.556E-05     11.23    <-- DIS
     278       3.48066755       3.48033753       9.482E-05     11.27    <-- DIS
     279       3.48047156       3.48014409       9.410E-05     11.31    <-- DIS
     280       3.48027706       3.47995213       9.337E-05     11.35    <-- DIS
     281       3.48008405       3.47976163       9.266E-05     11.39    <-- DIS
     282       3.47989251       3.47957258       9.195E-05     11.43    <-- DIS
     283       3.47970243       3.47938496       9.124E-05     11.47    <-- DIS
     284       3.47951379       3.47919878       9.054E-05     11.51    <-- DIS
     285       3.47932659       3.47901401       8.985E-05     11.55    <-- DIS
     286       3.47914082       3.47883064       8.916E-05     11.59    <-- DIS
     287       3.47895645       3.47864867       8.848E-05     11.64    <-- DIS
     288       3.47877349       3.47846808       8.780E-05     11.68    <-- DIS
     289       3.47859192       3.47828886       8.713E-05     11.72    <-- DIS
     290       3.47841172       3.47811100       8.646E-05     11.76    <-- DIS
     291       3.47823290       3.47793448       8.580E-05     11.80    <-- DIS
     292       3.47805543       3.47775931       8.515E-05     11.84    <-- DIS
     293       3.47787930       3.47758546       8.450E-05     11.88    <-- DIS
     294       3.47770451       3.47741293       8.385E-05     11.92    <-- DIS
     295       3.47753105       3.47724170       8.321E-05     11.96    <-- DIS
     296       3.47735889       3.47707177       8.258E-05     12.00    <-- DIS
     297       3.47718804       3.47690313       8.195E-05     12.04    <-- DIS
     298       3.47701848       3.47673576       8.132E-05     12.08    <-- DIS
     299       3.47685021       3.47656965       8.070E-05     12.12    <-- DIS
     300       3.47668321       3.47640480       8.008E-05     12.16    <-- DIS
     301       3.47651746       3.47624119       7.947E-05     12.20    <-- DIS
     302       3.47635297       3.47607882       7.887E-05     12.24    <-- DIS
     303       3.47618973       3.47591767       7.827E-05     12.28    <-- DIS
     304       3.47602771       3.47575774       7.767E-05     12.32    <-- DIS
     305       3.47586692       3.47559902       7.708E-05     12.36    <-- DIS
     306       3.47570734       3.47544149       7.649E-05     12.41    <-- DIS
     307       3.47554896       3.47528514       7.591E-05     12.45    <-- DIS
     308       3.47539177       3.47512998       7.533E-05     12.49    <-- DIS
     309       3.47523577       3.47497598       7.476E-05     12.53    <-- DIS
     310       3.47508095       3.47482314       7.419E-05     12.57    <-- DIS
     311       3.47492729       3.47467145       7.363E-05     12.61    <-- DIS
     312       3.47477478       3.47452090       7.307E-05     12.65    <-- DIS
     313       3.47462342       3.47437148       7.251E-05     12.69    <-- DIS
     314       3.47447320       3.47422319       7.196E-05     12.73    <-- DIS
     315       3.47432411       3.47407600       7.142E-05     12.77    <-- DIS
     316       3.47417614       3.47392993       7.087E-05     12.81    <-- DIS
     317       3.47402928       3.47378495       7.034E-05     12.85    <-- DIS
     318       3.47388352       3.47364105       6.980E-05     12.89    <-- DIS
     319       3.47373886       3.47349824       6.927E-05     12.94    <-- DIS
     320       3.47359528       3.47335650       6.875E-05     12.98    <-- DIS
     321       3.47345278       3.47321582       6.823E-05     13.02    <-- DIS
     322       3.47331135       3.47307619       6.771E-05     13.06    <-- DIS
     323       3.47317098       3.47293761       6.720E-05     13.10    <-- DIS
     324       3.47303165       3.47280006       6.669E-05     13.14    <-- DIS
     325       3.47289338       3.47266355       6.618E-05     13.18    <-- DIS
     326       3.47275613       3.47252806       6.568E-05     13.22    <-- DIS
     327       3.47261992       3.47239358       6.518E-05     13.26    <-- DIS
     328       3.47248472       3.47226011       6.469E-05     13.30    <-- DIS
     329       3.47235054       3.47212763       6.420E-05     13.34    <-- DIS
     330       3.47221736       3.47199614       6.371E-05     13.38    <-- DIS
     331       3.47208517       3.47186564       6.323E-05     13.42    <-- DIS
     332       3.47195397       3.47173611       6.275E-05     13.46    <-- DIS
     333       3.47182376       3.47160755       6.228E-05     13.50    <-- DIS
     334       3.47169451       3.47147995       6.181E-05     13.55    <-- DIS
     335       3.47156623       3.47135330       6.134E-05     13.59    <-- DIS
     336       3.47143891       3.47122759       6.088E-05     13.63    <-- DIS
     337       3.47131254       3.47110282       6.042E-05     13.67    <-- DIS
     338       3.47118711       3.47097899       5.996E-05     13.71    <-- DIS
     339       3.47106261       3.47085607       5.951E-05     13.75    <-- DIS
     340       3.47093904       3.47073407       5.906E-05     13.79    <-- DIS
     341       3.47081640       3.47061298       5.861E-05     13.83    <-- DIS
     342       3.47069467       3.47049279       5.817E-05     13.87    <-- DIS
     343       3.47057384       3.47037350       5.773E-05     13.91    <-- DIS
     344       3.47045392       3.47025509       5.729E-05     13.95    <-- DIS
     345       3.47033488       3.47013757       5.686E-05     13.99    <-- DIS
     346       3.47021674       3.47002092       5.643E-05     14.03    <-- DIS
     347       3.47009947       3.46990513       5.601E-05     14.07    <-- DIS
     348       3.46998308       3.46979021       5.558E-05     14.11    <-- DIS
     349       3.46986755       3.46967614       5.516E-05     14.15    <-- DIS
     350       3.46975288       3.46956292       5.475E-05     14.19    <-- DIS
     351       3.46963906       3.46945054       5.434E-05     14.24    <-- DIS
     352       3.46952608       3.46933900       5.393E-05     14.28    <-- DIS
     353       3.46941395       3.46922828       5.352E-05     14.32    <-- DIS
     354       3.46930265       3.46911839       5.312E-05     14.36    <-- DIS
     355       3.46919218       3.46900931       5.272E-05     14.40    <-- DIS
     356       3.46908252       3.46890104       5.232E-05     14.44    <-- DIS
     357       3.46897368       3.46879357       5.192E-05     14.48    <-- DIS
     358       3.46886565       3.46868690       5.153E-05     14.52    <-- DIS
     359       3.46875842       3.46858102       5.115E-05     14.56    <-- DIS
     360       3.46865198       3.46847592       5.076E-05     14.60    <-- DIS
     361       3.46854634       3.46837161       5.038E-05     14.64    <-- DIS
     362       3.46844147       3.46826806       5.000E-05     14.68    <-- DIS
     363       3.46833738       3.46816529       4.962E-05     14.72    <-- DIS
     364       3.46823407       3.46806327       4.925E-05     14.76    <-- DIS
     365       3.46813152       3.46796201       4.888E-05     14.81    <-- DIS
     366       3.46802973       3.46786150       4.851E-05     14.85    <-- DIS
     367       3.46792869       3.46776173       4.815E-05     14.89    <-- DIS
     368       3.46782840       3.46766271       4.778E-05     14.93    <-- DIS
     369       3.46772885       3.46756441       4.742E-05     14.97    <-- DIS
     370       3.46763004       3.46746684       4.707E-05     15.01    <-- DIS
     371       3.46753196       3.46736999       4.671E-05     15.05    <-- DIS
     372       3.46743461       3.46727386       4.636E-05     15.09    <-- DIS
     373       3.46733797       3.46717844       4.601E-05     15.13    <-- DIS
     374       3.46724205       3.46708372       4.567E-05     15.17    <-- DIS
     375       3.46714684       3.46698970       4.532E-05     15.21    <-- DIS
     376       3.46705233       3.46689638       4.498E-05     15.25    <-- DIS
     377       3.46695852       3.46680375       4.465E-05     15.29    <-- DIS
     378       3.46686541       3.46671180       4.431E-05     15.33    <-- DIS
     379       3.46677298       3.46662053       4.398E-05     15.37    <-- DIS
     380       3.46668123       3.46652993       4.365E-05     15.41    <-- DIS
     381       3.46659016       3.46644000       4.332E-05     15.45    <-- DIS
     382       3.46649976       3.46635074       4.299E-05     15.50    <-- DIS
     383       3.46641003       3.46626213       4.267E-05     15.54    <-- DIS
     384       3.46632097       3.46617417       4.235E-05     15.58    <-- DIS
     385       3.46623255       3.46608687       4.203E-05     15.62    <-- DIS
     386       3.46614479       3.46600021       4.172E-05     15.66    <-- DIS
     387       3.46605768       3.46591418       4.140E-05     15.70    <-- DIS
     388       3.46597121       3.46582879       4.109E-05     15.74    <-- DIS
     389       3.46588538       3.46574403       4.078E-05     15.78    <-- DIS
     390       3.46580018       3.46565990       4.048E-05     15.82    <-- DIS
     391       3.46571560       3.46557638       4.017E-05     15.86    <-- DIS
     392       3.46563165       3.46549348       3.987E-05     15.90    <-- DIS
     393       3.46554832       3.46541119       3.957E-05     15.94    <-- DIS
     394       3.46546560       3.46532950       3.928E-05     15.98    <-- DIS
     395       3.46538349       3.46524841       3.898E-05     16.02    <-- DIS
     396       3.46530199       3.46516793       3.869E-05     16.07    <-- DIS
     397       3.46522108       3.46508803       3.840E-05     16.11    <-- DIS
     398       3.46514077       3.46500872       3.811E-05     16.15    <-- DIS
     399       3.46506106       3.46492999       3.782E-05     16.19    <-- DIS
     400       3.46498192       3.46485185       3.754E-05     16.23    <-- DIS
     401       3.46490337       3.46477428       3.726E-05     16.27    <-- DIS
     402       3.46482540       3.46469727       3.698E-05     16.31    <-- DIS
     403       3.46474800       3.46462084       3.670E-05     16.35    <-- DIS
     404       3.46467117       3.46454496       3.643E-05     16.39    <-- DIS
     405       3.46459490       3.46446964       3.615E-05     16.43    <-- DIS
     406       3.46451919       3.46439488       3.588E-05     16.47    <-- DIS
     407       3.46444404       3.46432067       3.561E-05     16.51    <-- DIS
     408       3.46436945       3.46424699       3.535E-05     16.55    <-- DIS
     409       3.46429540       3.46417387       3.508E-05     16.59    <-- DIS
     410       3.46422189       3.46410127       3.482E-05     16.64    <-- DIS
     411       3.46414892       3.46402921       3.456E-05     16.68    <-- DIS
     412       3.46407649       3.46395768       3.430E-05     16.72    <-- DIS
     413       3.46400459       3.46388667       3.404E-05     16.76    <-- DIS
     414       3.46393322       3.46381619       3.379E-05     16.80    <-- DIS
     415       3.46386237       3.46374622       3.353E-05     16.84    <-- DIS
     416       3.46379205       3.46367676       3.328E-05     16.88    <-- DIS
     417       3.46372223       3.46360782       3.303E-05     16.92    <-- DIS
     418       3.46365293       3.46353938       3.279E-05     16.96    <-- DIS
     419       3.46358414       3.46347144       3.254E-05     17.00    <-- DIS
     420       3.46351585       3.46340400       3.230E-05     17.04    <-- DIS
     421       3.46344807       3.46333705       3.205E-05     17.08    <-- DIS
     422       3.46338078       3.46327059       3.181E-05     17.12    <-- DIS
     423       3.46331398       3.46320462       3.158E-05     17.17    <-- DIS
     424       3.46324767       3.46313914       3.134E-05     17.21    <-- DIS
     425       3.46318185       3.46307413       3.110E-05     17.25    <-- DIS
     426       3.46311651       3.46300960       3.087E-05     17.29    <-- DIS
     427       3.46305165       3.46294554       3.064E-05     17.33    <-- DIS
     428       3.46298726       3.46288195       3.041E-05     17.37    <-- DIS
     429       3.46292335       3.46281883       3.018E-05     17.41    <-- DIS
     430       3.46285990       3.46275617       2.996E-05     17.45    <-- DIS
     431       3.46279692       3.46269396       2.973E-05     17.49    <-- DIS
     432       3.46273440       3.46263221       2.951E-05     17.53    <-- DIS
     433       3.46267233       3.46257092       2.929E-05     17.57    <-- DIS
     434       3.46261072       3.46251007       2.907E-05     17.61    <-- DIS
     435       3.46254957       3.46244967       2.885E-05     17.65    <-- DIS
     436       3.46248885       3.46238971       2.864E-05     17.70    <-- DIS
     437       3.46242859       3.46233018       2.842E-05     17.74    <-- DIS
     438       3.46236876       3.46227110       2.821E-05     17.78    <-- DIS
     439       3.46230937       3.46221244       2.800E-05     17.82    <-- DIS
     440       3.46225042       3.46215421       2.779E-05     17.86    <-- DIS
     441       3.46219189       3.46209641       2.758E-05     17.90    <-- DIS
     442       3.46213380       3.46203903       2.737E-05     17.94    <-- DIS
     443       3.46207613       3.46198207       2.717E-05     17.98    <-- DIS
     444       3.46201888       3.46192553       2.696E-05     18.02    <-- DIS
     445       3.46196205       3.46186940       2.676E-05     18.06    <-- DIS
     446       3.46190563       3.46181368       2.656E-05     18.10    <-- DIS
     447       3.46184963       3.46175836       2.636E-05     18.14    <-- DIS
     448       3.46179403       3.46170345       2.617E-05     18.18    <-- DIS
     449       3.46173884       3.46164895       2.597E-05     18.22    <-- DIS
     450       3.46168406       3.46159484       2.578E-05     18.26    <-- DIS
     451       3.46162967       3.46154112       2.558E-05     18.31    <-- DIS
     452       3.46157569       3.46148780       2.539E-05     18.35    <-- DIS
     453       3.46152209       3.46143486       2.520E-05     18.39    <-- DIS
     454       3.46146889       3.46138231       2.501E-05     18.43    <-- DIS
     455       3.46141608       3.46133015       2.482E-05     18.47    <-- DIS
     456       3.46136365       3.46127836       2.464E-05     18.51    <-- DIS
     457       3.46131160       3.46122696       2.445E-05     18.55    <-- DIS
     458       3.46125993       3.46117593       2.427E-05     18.59    <-- DIS
     459       3.46120864       3.46112527       2.409E-05     18.63    <-- DIS
     460       3.46115773       3.46107498       2.391E-05     18.67    <-- DIS
     461       3.46110719       3.46102506       2.373E-05     18.71    <-- DIS
     462       3.46105701       3.46097550       2.355E-05     18.76    <-- DIS
     463       3.46100720       3.46092630       2.338E-05     18.80    <-- DIS
     464       3.46095775       3.46087746       2.320E-05     18.84    <-- DIS
     465       3.46090867       3.46082898       2.303E-05     18.88    <-- DIS
     466       3.46085994       3.46078085       2.285E-05     18.92    <-- DIS
     467       3.46081157       3.46073307       2.268E-05     18.96    <-- DIS
     468       3.46076355       3.46068564       2.251E-05     19.00    <-- DIS
     469       3.46071588       3.46063855       2.234E-05     19.04    <-- DIS
     470       3.46066856       3.46059181       2.218E-05     19.08    <-- DIS
     471       3.46062158       3.46054541       2.201E-05     19.12    <-- DIS
     472       3.46057495       3.46049935       2.185E-05     19.16    <-- DIS
     473       3.46052865       3.46045362       2.168E-05     19.20    <-- DIS
     474       3.46048269       3.46040822       2.152E-05     19.24    <-- DIS
     475       3.46043707       3.46036316       2.136E-05     19.28    <-- DIS
     476       3.46039178       3.46031842       2.120E-05     19.33    <-- DIS
     477       3.46034682       3.46027401       2.104E-05     19.37    <-- DIS
     478       3.46030219       3.46022993       2.088E-05     19.41    <-- DIS
     479       3.46025788       3.46018616       2.073E-05     19.45    <-- DIS
     480       3.46021389       3.46014271       2.057E-05     19.49    <-- DIS
     481       3.46017023       3.46009958       2.042E-05     19.53    <-- DIS
     482       3.46012688       3.46005676       2.026E-05     19.57    <-- DIS
     483       3.46008385       3.46001426       2.011E-05     19.61    <-- DIS
     484       3.46004113       3.45997206       1.996E-05     19.65    <-- DIS
     485       3.45999872       3.45993017       1.981E-05     19.69    <-- DIS
     486       3.45995662       3.45988859       1.966E-05     19.73    <-- DIS
     487       3.45991483       3.45984731       1.952E-05     19.77    <-- DIS
     488       3.45987334       3.45980632       1.937E-05     19.81    <-- DIS
     489       3.45983215       3.45976564       1.922E-05     19.86    <-- DIS
     490       3.45979127       3.45972525       1.908E-05     19.90    <-- DIS
     491       3.45975068       3.45968516       1.894E-05     19.94    <-- DIS
     492       3.45971038       3.45964535       1.880E-05     19.98    <-- DIS
     493       3.45967038       3.45960584       1.865E-05     20.02    <-- DIS
     494       3.45963067       3.45956662       1.851E-05     20.06    <-- DIS
     495       3.45959125       3.45952768       1.838E-05     20.10    <-- DIS
     496       3.45955211       3.45948902       1.824E-05     20.14    <-- DIS
     497       3.45951326       3.45945064       1.810E-05     20.18    <-- DIS
     498       3.45947469       3.45941254       1.797E-05     20.22    <-- DIS
     499       3.45943641       3.45937472       1.783E-05     20.27    <-- DIS
     500       3.45939840       3.45933718       1.770E-05     20.31    <-- DIS
     501       3.45936067       3.45929990       1.756E-05     20.35    <-- DIS
     502       3.45932321       3.45926290       1.743E-05     20.39    <-- DIS
     503       3.45928602       3.45922617       1.730E-05     20.43    <-- DIS
     504       3.45924910       3.45918970       1.717E-05     20.47    <-- DIS
     505       3.45921246       3.45915350       1.704E-05     20.51    <-- DIS
     506       3.45917608       3.45911756       1.692E-05     20.55    <-- DIS
     507       3.45913996       3.45908188       1.679E-05     20.59    <-- DIS
     508       3.45910410       3.45904647       1.666E-05     20.63    <-- DIS
     509       3.45906851       3.45901130       1.654E-05     20.67    <-- DIS
     510       3.45903317       3.45897640       1.641E-05     20.71    <-- DIS
     511       3.45899809       3.45894175       1.629E-05     20.75    <-- DIS
     512       3.45896327       3.45890735       1.617E-05     20.79    <-- DIS
     513       3.45892870       3.45887319       1.605E-05     20.83    <-- DIS
     514       3.45889438       3.45883929       1.593E-05     20.88    <-- DIS
     515       3.45886031       3.45880563       1.581E-05     20.92    <-- DIS
     516       3.45882649       3.45877222       1.569E-05     20.96    <-- DIS
     517       3.45879291       3.45873905       1.557E-05     21.00    <-- DIS
     518       3.45875957       3.45870612       1.545E-05     21.04    <-- DIS
     519       3.45872648       3.45867343       1.534E-05     21.08    <-- DIS
     520       3.45869363       3.45864098       1.522E-05     21.12    <-- DIS
     521       3.45866102       3.45860876       1.511E-05     21.16    <-- DIS
     522       3.45862864       3.45857678       1.499E-05     21.20    <-- DIS
     523       3.45859650       3.45854503       1.488E-05     21.24    <-- DIS
     524       3.45856459       3.45851351       1.477E-05     21.28    <-- DIS
     525       3.45853291       3.45848221       1.466E-05     21.32    <-- DIS
     526       3.45850147       3.45845115       1.455E-05     21.36    <-- DIS
     527       3.45847025       3.45842031       1.444E-05     21.41    <-- DIS
     528       3.45843926       3.45838969       1.433E-05     21.45    <-- DIS
     529       3.45840849       3.45835930       1.422E-05     21.49    <-- DIS
     530       3.45837794       3.45832912       1.412E-05     21.53    <-- DIS
     531       3.45834762       3.45829917       1.401E-05     21.57    <-- DIS
     532       3.45831752       3.45826943       1.391E-05     21.61    <-- DIS
     533       3.45828764       3.45823991       1.380E-05     21.65    <-- DIS
     534       3.45825797       3.45821060       1.370E-05     21.69    <-- DIS
     535       3.45822852       3.45818150       1.359E-05     21.73    <-- DIS
     536       3.45819928       3.45815262       1.349E-05     21.77    <-- DIS
     537       3.45817025       3.45812394       1.339E-05     21.81    <-- DIS
     538       3.45814144       3.45809548       1.329E-05     21.85    <-- DIS
     539       3.45811283       3.45806722       1.319E-05     21.89    <-- DIS
     540       3.45808443       3.45803916       1.309E-05     21.93    <-- DIS
     541       3.45805623       3.45801131       1.299E-05     21.97    <-- DIS
     542       3.45802825       3.45798366       1.289E-05     22.02    <-- DIS
     543       3.45800046       3.45795621       1.280E-05     22.06    <-- DIS
     544       3.45797287       3.45792895       1.270E-05     22.10    <-- DIS
     545       3.45794549       3.45790190       1.261E-05     22.14    <-- DIS
     546       3.45791830       3.45787504       1.251E-05     22.18    <-- DIS
     547       3.45789131       3.45784838       1.242E-05     22.22    <-- DIS
     548       3.45786452       3.45782191       1.232E-05     22.26    <-- DIS
     549       3.45783792       3.45779563       1.223E-05     22.30    <-- DIS
     550       3.45781151       3.45776954       1.214E-05     22.34    <-- DIS
     551       3.45778530       3.45774364       1.205E-05     22.38    <-- DIS
     552       3.45775927       3.45771793       1.196E-05     22.42    <-- DIS
     553       3.45773344       3.45769241       1.187E-05     22.46    <-- DIS
     554       3.45770779       3.45766707       1.178E-05     22.50    <-- DIS
     555       3.45768232       3.45764191       1.169E-05     22.55    <-- DIS
     556       3.45765704       3.45761694       1.160E-05     22.59    <-- DIS
     557       3.45763195       3.45759214       1.151E-05     22.63    <-- DIS
     558       3.45760703       3.45756753       1.143E-05     22.67    <-- DIS
     559       3.45758230       3.45754309       1.134E-05     22.71    <-- DIS
     560       3.45755775       3.45751883       1.125E-05     22.75    <-- DIS
     561       3.45753337       3.45749475       1.117E-05     22.79    <-- DIS
     562       3.45750917       3.45747084       1.109E-05     22.83    <-- DIS
     563       3.45748514       3.45744711       1.100E-05     22.87    <-- DIS
     564       3.45746129       3.45742354       1.092E-05     22.91    <-- DIS
     565       3.45743762       3.45740015       1.084E-05     22.95    <-- DIS
     566       3.45741411       3.45737693       1.076E-05     22.99    <-- DIS
     567       3.45739077       3.45735387       1.067E-05     23.03    <-- DIS
     568       3.45736761       3.45733098       1.059E-05     23.07    <-- DIS
     569       3.45734461       3.45730826       1.051E-05     23.12    <-- DIS
     570       3.45732177       3.45728570       1.043E-05     23.16    <-- DIS
     571       3.45729911       3.45726330       1.036E-05     23.20    <-- DIS
     572       3.45727660       3.45724107       1.028E-05     23.24    <-- DIS
     573       3.45725426       3.45721900       1.020E-05     23.28    <-- DIS
     574       3.45723208       3.45719709       1.012E-05     23.32    <-- DIS
     575       3.45721006       3.45717533       1.005E-05     23.36    <-- DIS
     576       3.45718820       3.45715374       9.970E-06     23.40    <-- DIS
     577       3.45716650       3.45713230       9.895E-06     23.44    <-- DIS
     578       3.45714496       3.45711101       9.820E-06     23.48    <-- DIS
     579       3.45712357       3.45708988       9.746E-06     23.52    <-- DIS
     580       3.45710234       3.45706890       9.673E-06     23.56    <-- DIS
     581       3.45708126       3.45704807       9.599E-06     23.61    <-- DIS
     582       3.45706033       3.45702740       9.527E-06     23.65    <-- DIS
     583       3.45703956       3.45700687       9.455E-06     23.69    <-- DIS
     584       3.45701893       3.45698649       9.383E-06     23.73    <-- DIS
     585       3.45699846       3.45696626       9.313E-06     23.77    <-- DIS
     586       3.45697813       3.45694618       9.242E-06     23.81    <-- DIS
     587       3.45695795       3.45692624       9.172E-06     23.85    <-- DIS
     588       3.45693792       3.45690645       9.103E-06     23.89    <-- DIS
     589       3.45691803       3.45688680       9.034E-06     23.93    <-- DIS
     590       3.45689828       3.45686729       8.966E-06     23.97    <-- DIS
     591       3.45687868       3.45684792       8.898E-06     24.01    <-- DIS
     592       3.45685922       3.45682869       8.831E-06     24.05    <-- DIS
     593       3.45683990       3.45680960       8.764E-06     24.09    <-- DIS
     594       3.45682072       3.45679065       8.697E-06     24.14    <-- DIS
     595       3.45680167       3.45677184       8.632E-06     24.18    <-- DIS
     596       3.45678277       3.45675316       8.566E-06     24.22    <-- DIS
     597       3.45676400       3.45673462       8.501E-06     24.26    <-- DIS
     598       3.45674537       3.45671621       8.437E-06     24.30    <-- DIS
     599       3.45672688       3.45669793       8.373E-06     24.34    <-- DIS
     600       3.45670851       3.45667979       8.310E-06     24.38    <-- DIS
     601       3.45669028       3.45666178       8.247E-06     24.42    <-- DIS
     602       3.45667219       3.45664390       8.184E-06     24.46    <-- DIS
     603       3.45665422       3.45662614       8.122E-06     24.50    <-- DIS
     604       3.45663638       3.45660852       8.061E-06     24.54    <-- DIS
     605       3.45661867       3.45659102       7.999E-06     24.58    <-- DIS
     606       3.45660109       3.45657365       7.939E-06     24.62    <-- DIS
     607       3.45658364       3.45655641       7.879E-06     24.67    <-- DIS
     608       3.45656631       3.45653929       7.819E-06     24.71    <-- DIS
     609       3.45654911       3.45652229       7.759E-06     24.75    <-- DIS
     610       3.45653203       3.45650542       7.701E-06     24.79    <-- DIS
     611       3.45651508       3.45648866       7.642E-06     24.83    <-- DIS
     612       3.45649825       3.45647203       7.584E-06     24.87    <-- DIS
     613       3.45648154       3.45645552       7.527E-06     24.91    <-- DIS
     614       3.45646495       3.45643913       7.469E-06     24.95    <-- DIS
     615       3.45644848       3.45642286       7.413E-06     24.99    <-- DIS
     616       3.45643213       3.45640670       7.356E-06     25.03    <-- DIS
     617       3.45641590       3.45639067       7.301E-06     25.07    <-- DIS
     618       3.45639978       3.45637474       7.245E-06     25.11    <-- DIS
     619       3.45638379       3.45635894       7.190E-06     25.15    <-- DIS
     620       3.45636790       3.45634324       7.135E-06     25.19    <-- DIS
     621       3.45635214       3.45632766       7.081E-06     25.24    <-- DIS
     622       3.45633648       3.45631220       7.027E-06     25.28    <-- DIS
     623       3.45632094       3.45629684       6.974E-06     25.32    <-- DIS
     624       3.45630552       3.45628160       6.921E-06     25.36    <-- DIS
     625       3.45629020       3.45626646       6.868E-06     25.40    <-- DIS
     626       3.45627499       3.45625144       6.816E-06     25.44    <-- DIS
     627       3.45625990       3.45623652       6.764E-06     25.48    <-- DIS
     628       3.45624491       3.45622171       6.713E-06     25.52    <-- DIS
     629       3.45623003       3.45620701       6.661E-06     25.56    <-- DIS
     630       3.45621526       3.45619241       6.611E-06     25.60    <-- DIS
     631       3.45620060       3.45617792       6.560E-06     25.64    <-- DIS
     632       3.45618604       3.45616354       6.510E-06     25.68    <-- DIS
     633       3.45617159       3.45614926       6.461E-06     25.72    <-- DIS
     634       3.45615724       3.45613508       6.412E-06     25.77    <-- DIS
     635       3.45614299       3.45612100       6.363E-06     25.81    <-- DIS
     636       3.45612885       3.45610703       6.314E-06     25.85    <-- DIS
     637       3.45611481       3.45609315       6.266E-06     25.89    <-- DIS
     638       3.45610087       3.45607938       6.218E-06     25.93    <-- DIS
     639       3.45608703       3.45606571       6.171E-06     25.97    <-- DIS
     640       3.45607330       3.45605213       6.124E-06     26.01    <-- DIS
     641       3.45605966       3.45603865       6.077E-06     26.05    <-- DIS
     642       3.45604612       3.45602527       6.031E-06     26.09    <-- DIS
     643       3.45603267       3.45601199       5.985E-06     26.13    <-- DIS
     644       3.45601933       3.45599880       5.939E-06     26.17    <-- DIS
     645       3.45600608       3.45598571       5.894E-06     26.21    <-- DIS
     646       3.45599293       3.45597271       5.849E-06     26.25    <-- DIS
     647       3.45597987       3.45595981       5.804E-06     26.29    <-- DIS
     648       3.45596691       3.45594700       5.760E-06     26.33    <-- DIS
     649       3.45595404       3.45593428       5.716E-06     26.37    <-- DIS
     650       3.45594126       3.45592166       5.672E-06     26.42    <-- DIS
     651       3.45592857       3.45590912       5.629E-06     26.46    <-- DIS
     652       3.45591598       3.45589668       5.586E-06     26.50    <-- DIS
     653       3.45590348       3.45588432       5.543E-06     26.54    <-- DIS
     654       3.45589107       3.45587206       5.501E-06     26.58    <-- DIS
     655       3.45587874       3.45585988       5.458E-06     26.62    <-- DIS
     656       3.45586651       3.45584779       5.417E-06     26.66    <-- DIS
     657       3.45585437       3.45583579       5.375E-06     26.70    <-- DIS
     658       3.45584231       3.45582387       5.334E-06     26.74    <-- DIS
     659       3.45583034       3.45581205       5.293E-06     26.78    <-- DIS
     660       3.45581845       3.45580030       5.253E-06     26.82    <-- DIS
     661       3.45580666       3.45578864       5.212E-06     26.86    <-- DIS
     662       3.45579494       3.45577707       5.173E-06     26.90    <-- DIS
     663       3.45578331       3.45576558       5.133E-06     26.95    <-- DIS
     664       3.45577177       3.45575417       5.094E-06     26.99    <-- DIS
     665       3.45576031       3.45574284       5.054E-06     27.03    <-- DIS
     666       3.45574893       3.45573160       5.016E-06     27.07    <-- DIS
     667       3.45573764       3.45572044       4.977E-06     27.11    <-- DIS
     668       3.45572642       3.45570935       4.939E-06     27.15    <-- DIS
     669       3.45571529       3.45569835       4.901E-06     27.19    <-- DIS
     670       3.45570423       3.45568743       4.864E-06     27.23    <-- DIS
     671       3.45569326       3.45567658       4.826E-06     27.27    <-- DIS
     672       3.45568237       3.45566582       4.789E-06     27.31    <-- DIS
     673       3.45567155       3.45565513       4.752E-06     27.35    <-- DIS
     674       3.45566081       3.45564452       4.716E-06     27.39    <-- DIS
     675       3.45565015       3.45563398       4.680E-06     27.43    <-- DIS
     676       3.45563957       3.45562352       4.644E-06     27.47    <-- DIS
     677       3.45562906       3.45561314       4.608E-06     27.52    <-- DIS
     678       3.45561863       3.45560283       4.573E-06     27.56    <-- DIS
     679       3.45560828       3.45559260       4.537E-06     27.60    <-- DIS
     680       3.45559800       3.45558244       4.502E-06     27.64    <-- DIS
     681       3.45558779       3.45557235       4.468E-06     27.68    <-- DIS
     682       3.45557766       3.45556234       4.433E-06     27.72    <-- DIS
     683       3.45556760       3.45555240       4.399E-06     27.76    <-- DIS
     684       3.45555761       3.45554253       4.365E-06     27.80    <-- DIS
     685       3.45554770       3.45553273       4.332E-06     27.84    <-- DIS
     686       3.45553785       3.45552300       4.298E-06     27.88    <-- DIS
     687       3.45552808       3.45551334       4.265E-06     27.92    <-- DIS
     688       3.45551838       3.45550375       4.232E-06     27.96    <-- DIS
     689       3.45550875       3.45549423       4.200E-06     28.00    <-- DIS
     690       3.45549918       3.45548478       4.167E-06     28.04    <-- DIS
     691       3.45548969       3.45547540       4.135E-06     28.08    <-- DIS
     692       3.45548027       3.45546609       4.103E-06     28.12    <-- DIS
     693       3.45547091       3.45545684       4.072E-06     28.16    <-- DIS
     694       3.45546162       3.45544766       4.040E-06     28.21    <-- DIS
     695       3.45545240       3.45543854       4.009E-06     28.25    <-- DIS
     696       3.45544324       3.45542950       3.978E-06     28.29    <-- DIS
     697       3.45543415       3.45542051       3.947E-06     28.33    <-- DIS
     698       3.45542513       3.45541159       3.917E-06     28.37    <-- DIS
     699       3.45541617       3.45540274       3.887E-06     28.41    <-- DIS
     700       3.45540727       3.45539395       3.857E-06     28.45    <-- DIS
     701       3.45539844       3.45538522       3.827E-06     28.49    <-- DIS
     702       3.45538968       3.45537656       3.797E-06     28.53    <-- DIS
     703       3.45538097       3.45536796       3.768E-06     28.57    <-- DIS
     704       3.45537233       3.45535942       3.739E-06     28.61    <-- DIS
     705       3.45536376       3.45535094       3.710E-06     28.65    <-- DIS
     706       3.45535524       3.45534252       3.681E-06     28.69    <-- DIS
     707       3.45534679       3.45533416       3.652E-06     28.74    <-- DIS
     708       3.45533839       3.45532587       3.624E-06     28.78    <-- DIS
     709       3.45533006       3.45531763       3.596E-06     28.82    <-- DIS
     710       3.45532179       3.45530946       3.568E-06     28.86    <-- DIS
     711       3.45531357       3.45530134       3.541E-06     28.90    <-- DIS
     712       3.45530542       3.45529328       3.513E-06     28.94    <-- DIS
     713       3.45529732       3.45528528       3.486E-06     28.98    <-- DIS
     714       3.45528929       3.45527733       3.459E-06     29.02    <-- DIS
     715       3.45528131       3.45526945       3.432E-06     29.06    <-- DIS
     716       3.45527339       3.45526162       3.405E-06     29.10    <-- DIS
     717       3.45526552       3.45525385       3.379E-06     29.14    <-- DIS
     718       3.45525771       3.45524613       3.353E-06     29.18    <-- DIS
     719       3.45524996       3.45523847       3.327E-06     29.22    <-- DIS
     720       3.45524227       3.45523086       3.301E-06     29.26    <-- DIS
     721       3.45523463       3.45522331       3.275E-06     29.30    <-- DIS
     722       3.45522704       3.45521581       3.250E-06     29.34    <-- DIS
     723       3.45521951       3.45520837       3.224E-06     29.39    <-- DIS
     724       3.45521204       3.45520098       3.199E-06     29.43    <-- DIS
     725       3.45520462       3.45519365       3.174E-06     29.47    <-- DIS
     726       3.45519725       3.45518636       3.150E-06     29.54    <-- DIS
     727       3.45518993       3.45517913       3.125E-06     29.58    <-- DIS
     728       3.45518267       3.45517196       3.101E-06     29.62    <-- DIS
     729       3.45517546       3.45516483       3.076E-06     29.66    <-- DIS
     730       3.45516830       3.45515775       3.053E-06     29.70    <-- DIS
     731       3.45516120       3.45515073       3.029E-06     29.74    <-- DIS
     732       3.45515414       3.45514376       3.005E-06     29.79    <-- DIS
     733       3.45514714       3.45513683       2.982E-06     29.83    <-- DIS
     734       3.45514018       3.45512996       2.958E-06     29.87    <-- DIS
     735       3.45513328       3.45512314       2.935E-06     29.91    <-- DIS
     736       3.45512643       3.45511636       2.912E-06     29.95    <-- DIS
     737       3.45511962       3.45510964       2.890E-06     29.99    <-- DIS
     738       3.45511287       3.45510296       2.867E-06     30.03    <-- DIS
     739       3.45510616       3.45509633       2.845E-06     30.07    <-- DIS
     740       3.45509950       3.45508975       2.822E-06     30.11    <-- DIS
     741       3.45509289       3.45508322       2.800E-06     30.15    <-- DIS
     742       3.45508633       3.45507673       2.778E-06     30.19    <-- DIS
     743       3.45507981       3.45507029       2.757E-06     30.23    <-- DIS
     744       3.45507335       3.45506390       2.735E-06     30.27    <-- DIS
     745       3.45506692       3.45505755       2.714E-06     30.31    <-- DIS
     746       3.45506055       3.45505125       2.692E-06     30.35    <-- DIS
     747       3.45505422       3.45504499       2.671E-06     30.40    <-- DIS
     748       3.45504794       3.45503878       2.650E-06     30.44    <-- DIS
     749       3.45504170       3.45503261       2.629E-06     30.48    <-- DIS
     750       3.45503550       3.45502649       2.609E-06     30.52    <-- DIS
     751       3.45502936       3.45502041       2.588E-06     30.56    <-- DIS
     752       3.45502325       3.45501438       2.568E-06     30.60    <-- DIS
     753       3.45501719       3.45500839       2.548E-06     30.64    <-- DIS
     754       3.45501117       3.45500244       2.528E-06     30.68    <-- DIS
     755       3.45500520       3.45499654       2.508E-06     30.72    <-- DIS
     756       3.45499927       3.45499067       2.488E-06     30.76    <-- DIS
     757       3.45499338       3.45498485       2.469E-06     30.80    <-- DIS
     758       3.45498754       3.45497908       2.449E-06     30.84    <-- DIS
     759       3.45498174       3.45497334       2.430E-06     30.88    <-- DIS
     760       3.45497597       3.45496764       2.411E-06     30.93    <-- DIS
     761       3.45497025       3.45496199       2.392E-06     30.97    <-- DIS
     762       3.45496458       3.45495638       2.373E-06     31.01    <-- DIS
     763       3.45495894       3.45495080       2.354E-06     31.05    <-- DIS
     764       3.45495334       3.45494527       2.336E-06     31.09    <-- DIS
     765       3.45494779       3.45493978       2.317E-06     31.13    <-- DIS
     766       3.45494227       3.45493433       2.299E-06     31.17    <-- DIS
     767       3.45493679       3.45492891       2.281E-06     31.21    <-- DIS
     768       3.45493136       3.45492354       2.263E-06     31.25    <-- DIS
     769       3.45492596       3.45491820       2.245E-06     31.29    <-- DIS
     770       3.45492060       3.45491290       2.227E-06     31.33    <-- DIS
     771       3.45491528       3.45490764       2.210E-06     31.37    <-- DIS
     772       3.45491000       3.45490242       2.192E-06     31.41    <-- DIS
     773       3.45490475       3.45489724       2.175E-06     31.45    <-- DIS
[...]
  WF centre and spread    3  (  1.268834, -5.000000, -5.000000 )     0.86371278
  WF centre and spread    4  (  1.268854, -5.000000,  5.000000 )     0.86429432
  Sum of centres and spreads (  2.529487,-10.000000, 10.000000 )     3.45600046
 
    977    -0.671E-13     0.0000074862        3.4560004637      43.48  <-- CONV
        O_D=      0.0000000 O_OD=      0.0016794 O_TOT=      3.4560005 <-- SPRD
 Delta: O_D= -0.6179666E-13 O_OD= -0.5188124E-14 O_TOT= -0.6705747E-13 <-- DLTA
 ------------------------------------------------------------------------------
 Cycle:    978
  WF centre and spread    1  ( -0.004110, -5.000000,  5.000000 )     0.86371873
  WF centre and spread    2  ( -0.004091,  5.000000,  5.000000 )     0.86427463
  WF centre and spread    3  (  1.268834, -5.000000, -5.000000 )     0.86371278
  WF centre and spread    4  (  1.268854, -5.000000,  5.000000 )     0.86429432
  Sum of centres and spreads (  2.529487,-10.000000, 10.000000 )     3.45600046
 
    978    -0.839E-13     0.0000074851        3.4560004637      43.48  <-- CONV
        O_D=      0.0000000 O_OD=      0.0016794 O_TOT=      3.4560005 <-- SPRD
 Delta: O_D= -0.7721329E-13 O_OD= -0.6509984E-14 O_TOT= -0.8393286E-13 <-- DLTA
 ------------------------------------------------------------------------------
 Cycle:    979
  WF centre and spread    1  ( -0.004110, -5.000000,  5.000000 )     0.86371873
  WF centre and spread    2  ( -0.004091,  5.000000,  5.000000 )     0.86427463
  WF centre and spread    3  (  1.268834, -5.000000, -5.000000 )     0.86371278
  WF centre and spread    4  (  1.268854, -5.000000,  5.000000 )     0.86429432
  Sum of centres and spreads (  2.529487,-10.000000, 10.000000 )     3.45600046
 
    979    -0.100E-12     0.0000074837        3.4560004637      43.49  <-- CONV
        O_D=      0.0000000 O_OD=      0.0016794 O_TOT=      3.4560005 <-- SPRD
 Delta: O_D= -0.9260750E-13 O_OD= -0.7825988E-14 O_TOT= -0.1003642E-12 <-- DLTA
 ------------------------------------------------------------------------------
 Cycle:    980
  WF centre and spread    1  ( -0.004110, -5.000000,  5.000000 )     0.86371873
  WF centre and spread    2  ( -0.004091,  5.000000,  5.000000 )     0.86427463
  WF centre and spread    3  (  1.268834, -5.000000, -5.000000 )     0.86371278
  WF centre and spread    4  (  1.268854, -5.000000,  5.000000 )     0.86429432
  Sum of centres and spreads (  2.529487,-10.000000, 10.000000 )     3.45600046
 
    980    -0.164E-13     0.0000074820        3.4560004637      43.49  <-- CONV
        O_D=      0.0000000 O_OD=      0.0016794 O_TOT=      3.4560005 <-- SPRD
 Delta: O_D= -0.1543373E-13 O_OD= -0.1309283E-14 O_TOT= -0.1643130E-13 <-- DLTA
 ------------------------------------------------------------------------------
 Cycle:    981
  WF centre and spread    1  ( -0.004110, -5.000000,  5.000000 )     0.86371873
  WF centre and spread    2  ( -0.004091,  5.000000,  5.000000 )     0.86427463
  WF centre and spread    3  (  1.268834, -5.000000, -5.000000 )     0.86371278
  WF centre and spread    4  (  1.268854, -5.000000,  5.000000 )     0.86429432
  Sum of centres and spreads (  2.529487,-10.000000, 10.000000 )     3.45600046
 
    981    -0.338E-13     0.0000074817        3.4560004637      43.49  <-- CONV
        O_D=      0.0000000 O_OD=      0.0016794 O_TOT=      3.4560005 <-- SPRD
 Delta: O_D= -0.3086389E-13 O_OD= -0.2584738E-14 O_TOT= -0.3375078E-13 <-- DLTA
 ------------------------------------------------------------------------------
 Cycle:    982
  WF centre and spread    1  ( -0.004110, -5.000000,  5.000000 )     0.86371873
  WF centre and spread    2  ( -0.004091,  5.000000,  5.000000 )     0.86427463
  WF centre and spread    3  (  1.268834, -5.000000, -5.000000 )     0.86371278
  WF centre and spread    4  (  1.268854, -5.000000,  5.000000 )     0.86429432
  Sum of centres and spreads (  2.529487,-10.000000, 10.000000 )     3.45600046
 
    982    -0.502E-13     0.0000074812        3.4560004637      43.49  <-- CONV
        O_D=      0.0000000 O_OD=      0.0016794 O_TOT=      3.4560005 <-- SPRD
 Delta: O_D= -0.4628576E-13 O_OD= -0.3893370E-14 O_TOT= -0.5018208E-13 <-- DLTA
 ------------------------------------------------------------------------------
 Cycle:    983
  WF centre and spread    1  ( -0.004110, -5.000000,  5.000000 )     0.86371873
  WF centre and spread    2  ( -0.004091,  5.000000,  5.000000 )     0.86427463
  WF centre and spread    3  (  1.268834, -5.000000, -5.000000 )     0.86371278
  WF centre and spread    4  (  1.268854, -5.000000,  5.000000 )     0.86429432
  Sum of centres and spreads (  2.529487,-10.000000, 10.000000 )     3.45600046
 
    983    -0.671E-13     0.0000074803        3.4560004637      43.49  <-- CONV
        O_D=      0.0000000 O_OD=      0.0016794 O_TOT=      3.4560005 <-- SPRD
 Delta: O_D= -0.6169464E-13 O_OD= -0.5226939E-14 O_TOT= -0.6705747E-13 <-- DLTA
 ------------------------------------------------------------------------------
 Cycle:    984
  WF centre and spread    1  ( -0.004110, -5.000000,  5.000000 )     0.86371873
  WF centre and spread    2  ( -0.004091,  5.000000,  5.000000 )     0.86427463
  WF centre and spread    3  (  1.268834, -5.000000, -5.000000 )     0.86371278
  WF centre and spread    4  (  1.268854, -5.000000,  5.000000 )     0.86429432
  Sum of centres and spreads (  2.529487,-10.000000, 10.000000 )     3.45600046
 
    984    -0.835E-13     0.0000074792        3.4560004637      43.49  <-- CONV
        O_D=      0.0000000 O_OD=      0.0016794 O_TOT=      3.4560005 <-- SPRD
 Delta: O_D= -0.7708582E-13 O_OD= -0.6521042E-14 O_TOT= -0.8348877E-13 <-- DLTA
 ------------------------------------------------------------------------------
 Cycle:    985
  WF centre and spread    1  ( -0.004110, -5.000000,  5.000000 )     0.86371873
  WF centre and spread    2  ( -0.004091,  5.000000,  5.000000 )     0.86427463
  WF centre and spread    3  (  1.268834, -5.000000, -5.000000 )     0.86371278
  WF centre and spread    4  (  1.268854, -5.000000,  5.000000 )     0.86429432
  Sum of centres and spreads (  2.529487,-10.000000, 10.000000 )     3.45600046
 
    985    -0.100E-12     0.0000074779        3.4560004637      43.50  <-- CONV
        O_D=      0.0000000 O_OD=      0.0016794 O_TOT=      3.4560005 <-- SPRD
 Delta: O_D= -0.9245460E-13 O_OD= -0.7798233E-14 O_TOT= -0.1003642E-12 <-- DLTA
 ------------------------------------------------------------------------------
 Cycle:    986
  WF centre and spread    1  ( -0.004110, -5.000000,  5.000000 )     0.86371873
  WF centre and spread    2  ( -0.004091,  5.000000,  5.000000 )     0.86427463
  WF centre and spread    3  (  1.268834, -5.000000, -5.000000 )     0.86371278
  WF centre and spread    4  (  1.268854, -5.000000,  5.000000 )     0.86429432
  Sum of centres and spreads (  2.529487,-10.000000, 10.000000 )     3.45600046
 
    986    -0.169E-13     0.0000074762        3.4560004637      43.50  <-- CONV
        O_D=      0.0000000 O_OD=      0.0016794 O_TOT=      3.4560005 <-- SPRD
 Delta: O_D= -0.1540825E-13 O_OD= -0.1304295E-14 O_TOT= -0.1687539E-13 <-- DLTA
 ------------------------------------------------------------------------------
 Cycle:    987
  WF centre and spread    1  ( -0.004110, -5.000000,  5.000000 )     0.86371873
  WF centre and spread    2  ( -0.004091,  5.000000,  5.000000 )     0.86427463
  WF centre and spread    3  (  1.268834, -5.000000, -5.000000 )     0.86371278
  WF centre and spread    4  (  1.268854, -5.000000,  5.000000 )     0.86429432
  Sum of centres and spreads (  2.529487,-10.000000, 10.000000 )     3.45600046
 
    987    -0.333E-13     0.0000074759        3.4560004637      43.50  <-- CONV
        O_D=      0.0000000 O_OD=      0.0016794 O_TOT=      3.4560005 <-- SPRD
 Delta: O_D= -0.3081293E-13 O_OD= -0.2607289E-14 O_TOT= -0.3330669E-13 <-- DLTA
 ------------------------------------------------------------------------------
 Cycle:    988
  WF centre and spread    1  ( -0.004110, -5.000000,  5.000000 )     0.86371873
  WF centre and spread    2  ( -0.004091,  5.000000,  5.000000 )     0.86427463
  WF centre and spread    3  (  1.268834, -5.000000, -5.000000 )     0.86371278
  WF centre and spread    4  (  1.268854, -5.000000,  5.000000 )     0.86429432
  Sum of centres and spreads (  2.529487,-10.000000, 10.000000 )     3.45600046
 
    988    -0.502E-13     0.0000074754        3.4560004637      43.50  <-- CONV
        O_D=      0.0000000 O_OD=      0.0016794 O_TOT=      3.4560005 <-- SPRD
 Delta: O_D= -0.4620934E-13 O_OD= -0.3907248E-14 O_TOT= -0.5018208E-13 <-- DLTA
 ------------------------------------------------------------------------------
 Cycle:    989
  WF centre and spread    1  ( -0.004110, -5.000000,  5.000000 )     0.86371873
  WF centre and spread    2  ( -0.004091,  5.000000,  5.000000 )     0.86427463
  WF centre and spread    3  (  1.268834, -5.000000, -5.000000 )     0.86371278
  WF centre and spread    4  (  1.268854, -5.000000,  5.000000 )     0.86429432
  Sum of centres and spreads (  2.529487,-10.000000, 10.000000 )     3.45600046
 
    989    -0.666E-13     0.0000074745        3.4560004637      43.50  <-- CONV
        O_D=      0.0000000 O_OD=      0.0016794 O_TOT=      3.4560005 <-- SPRD
 Delta: O_D= -0.6159278E-13 O_OD= -0.5191594E-14 O_TOT= -0.6661338E-13 <-- DLTA
 ------------------------------------------------------------------------------
 Cycle:    990
  WF centre and spread    1  ( -0.004110, -5.000000,  5.000000 )     0.86371873
  WF centre and spread    2  ( -0.004091,  5.000000,  5.000000 )     0.86427463
  WF centre and spread    3  (  1.268834, -5.000000, -5.000000 )     0.86371278
  WF centre and spread    4  (  1.268854, -5.000000,  5.000000 )     0.86429432
  Sum of centres and spreads (  2.529487,-10.000000, 10.000000 )     3.45600046
 
    990    -0.835E-13     0.0000074734        3.4560004637      43.50  <-- CONV
        O_D=      0.0000000 O_OD=      0.0016794 O_TOT=      3.4560005 <-- SPRD
 Delta: O_D= -0.7695855E-13 O_OD= -0.6504346E-14 O_TOT= -0.8348877E-13 <-- DLTA
 ------------------------------------------------------------------------------
 Cycle:    991
  WF centre and spread    1  ( -0.004110, -5.000000,  5.000000 )     0.86371873
  WF centre and spread    2  ( -0.004091,  5.000000,  5.000000 )     0.86427463
  WF centre and spread    3  (  1.268834, -5.000000, -5.000000 )     0.86371278
  WF centre and spread    4  (  1.268854, -5.000000,  5.000000 )     0.86429432
  Sum of centres and spreads (  2.529487,-10.000000, 10.000000 )     3.45600046
 
    991    -0.999E-13     0.0000074720        3.4560004637      43.51  <-- CONV
        O_D=      0.0000000 O_OD=      0.0016794 O_TOT=      3.4560005 <-- SPRD
 Delta: O_D= -0.9230196E-13 O_OD= -0.7814279E-14 O_TOT= -0.9992007E-13 <-- DLTA
 ------------------------------------------------------------------------------
 Cycle:    992
  WF centre and spread    1  ( -0.004110, -5.000000,  5.000000 )     0.86371873
  WF centre and spread    2  ( -0.004091,  5.000000,  5.000000 )     0.86427463
  WF centre and spread    3  (  1.268834, -5.000000, -5.000000 )     0.86371278
  WF centre and spread    4  (  1.268854, -5.000000,  5.000000 )     0.86429432
  Sum of centres and spreads (  2.529487,-10.000000, 10.000000 )     3.45600046
 
    992    -0.164E-13     0.0000074704        3.4560004637      43.51  <-- CONV
        O_D=      0.0000000 O_OD=      0.0016794 O_TOT=      3.4560005 <-- SPRD
 Delta: O_D= -0.1538281E-13 O_OD= -0.1286297E-14 O_TOT= -0.1643130E-13 <-- DLTA
 ------------------------------------------------------------------------------
 Cycle:    993
  WF centre and spread    1  ( -0.004110, -5.000000,  5.000000 )     0.86371873
  WF centre and spread    2  ( -0.004091,  5.000000,  5.000000 )     0.86427463
  WF centre and spread    3  (  1.268834, -5.000000, -5.000000 )     0.86371278
  WF centre and spread    4  (  1.268854, -5.000000,  5.000000 )     0.86429432
  Sum of centres and spreads (  2.529487,-10.000000, 10.000000 )     3.45600046
 
    993    -0.338E-13     0.0000074701        3.4560004637      43.51  <-- CONV
        O_D=      0.0000000 O_OD=      0.0016794 O_TOT=      3.4560005 <-- SPRD
 Delta: O_D= -0.3076206E-13 O_OD= -0.2614011E-14 O_TOT= -0.3375078E-13 <-- DLTA
 ------------------------------------------------------------------------------
 Cycle:    994
  WF centre and spread    1  ( -0.004110, -5.000000,  5.000000 )     0.86371873
  WF centre and spread    2  ( -0.004091,  5.000000,  5.000000 )     0.86427463
  WF centre and spread    3  (  1.268834, -5.000000, -5.000000 )     0.86371278
  WF centre and spread    4  (  1.268854, -5.000000,  5.000000 )     0.86429432
  Sum of centres and spreads (  2.529487,-10.000000, 10.000000 )     3.45600046
 
    994    -0.502E-13     0.0000074695        3.4560004637      43.51  <-- CONV
        O_D=      0.0000000 O_OD=      0.0016794 O_TOT=      3.4560005 <-- SPRD
 Delta: O_D= -0.4613305E-13 O_OD= -0.3909850E-14 O_TOT= -0.5018208E-13 <-- DLTA
 ------------------------------------------------------------------------------
 Cycle:    995
  WF centre and spread    1  ( -0.004110, -5.000000,  5.000000 )     0.86371873
  WF centre and spread    2  ( -0.004091,  5.000000,  5.000000 )     0.86427463
  WF centre and spread    3  (  1.268834, -5.000000, -5.000000 )     0.86371278
  WF centre and spread    4  (  1.268854, -5.000000,  5.000000 )     0.86429432
  Sum of centres and spreads (  2.529487,-10.000000, 10.000000 )     3.45600046
 
    995    -0.666E-13     0.0000074687        3.4560004637      43.51  <-- CONV
        O_D=      0.0000000 O_OD=      0.0016794 O_TOT=      3.4560005 <-- SPRD
 Delta: O_D= -0.6149109E-13 O_OD= -0.5187474E-14 O_TOT= -0.6661338E-13 <-- DLTA
 ------------------------------------------------------------------------------
 Cycle:    996
  WF centre and spread    1  ( -0.004110, -5.000000,  5.000000 )     0.86371873
  WF centre and spread    2  ( -0.004091,  5.000000,  5.000000 )     0.86427463
  WF centre and spread    3  (  1.268834, -5.000000, -5.000000 )     0.86371278
  WF centre and spread    4  (  1.268854, -5.000000,  5.000000 )     0.86429432
  Sum of centres and spreads (  2.529487,-10.000000, 10.000000 )     3.45600046
 
    996    -0.830E-13     0.0000074676        3.4560004637      43.52  <-- CONV
        O_D=      0.0000000 O_OD=      0.0016794 O_TOT=      3.4560005 <-- SPRD
 Delta: O_D= -0.7683149E-13 O_OD= -0.6513670E-14 O_TOT= -0.8304468E-13 <-- DLTA
 ------------------------------------------------------------------------------
 Cycle:    997
  WF centre and spread    1  ( -0.004110, -5.000000,  5.000000 )     0.86371873
  WF centre and spread    2  ( -0.004091,  5.000000,  5.000000 )     0.86427463
  WF centre and spread    3  (  1.268834, -5.000000, -5.000000 )     0.86371278
  WF centre and spread    4  (  1.268854, -5.000000,  5.000000 )     0.86429432
  Sum of centres and spreads (  2.529487,-10.000000, 10.000000 )     3.45600046
 
    997    -0.100E-12     0.0000074662        3.4560004637      43.52  <-- CONV
        O_D=      0.0000000 O_OD=      0.0016794 O_TOT=      3.4560005 <-- SPRD
 Delta: O_D= -0.9214958E-13 O_OD= -0.7813845E-14 O_TOT= -0.1003642E-12 <-- DLTA
 ------------------------------------------------------------------------------
 Cycle:    998
  WF centre and spread    1  ( -0.004110, -5.000000,  5.000000 )     0.86371873
  WF centre and spread    2  ( -0.004091,  5.000000,  5.000000 )     0.86427463
  WF centre and spread    3  (  1.268834, -5.000000, -5.000000 )     0.86371278
  WF centre and spread    4  (  1.268854, -5.000000,  5.000000 )     0.86429432
  Sum of centres and spreads (  2.529487,-10.000000, 10.000000 )     3.45600046
 
    998    -0.164E-13     0.0000074646        3.4560004637      43.52  <-- CONV
        O_D=      0.0000000 O_OD=      0.0016794 O_TOT=      3.4560005 <-- SPRD
 Delta: O_D= -0.1535741E-13 O_OD= -0.1278925E-14 O_TOT= -0.1643130E-13 <-- DLTA
 ------------------------------------------------------------------------------
 Cycle:    999
  WF centre and spread    1  ( -0.004110, -5.000000,  5.000000 )     0.86371873
  WF centre and spread    2  ( -0.004091,  5.000000,  5.000000 )     0.86427463
  WF centre and spread    3  (  1.268834, -5.000000, -5.000000 )     0.86371278
  WF centre and spread    4  (  1.268854, -5.000000,  5.000000 )     0.86429432
  Sum of centres and spreads (  2.529487,-10.000000, 10.000000 )     3.45600046
 
    999    -0.333E-13     0.0000074643        3.4560004637      43.52  <-- CONV
        O_D=      0.0000000 O_OD=      0.0016794 O_TOT=      3.4560005 <-- SPRD
 Delta: O_D= -0.3071127E-13 O_OD= -0.2605338E-14 O_TOT= -0.3330669E-13 <-- DLTA
 ------------------------------------------------------------------------------
 Cycle:   1000
  WF centre and spread    1  ( -0.004110, -5.000000,  5.000000 )     0.86371873
  WF centre and spread    2  ( -0.004091,  5.000000,  5.000000 )     0.86427463
  WF centre and spread    3  (  1.268834, -5.000000, -5.000000 )     0.86371278
  WF centre and spread    4  (  1.268854, -5.000000,  5.000000 )     0.86429432
  Sum of centres and spreads (  2.529487,-10.000000, 10.000000 )     3.45600046
 
   1000    -0.497E-13     0.0000074637        3.4560004637      43.52  <-- CONV
        O_D=      0.0000000 O_OD=      0.0016794 O_TOT=      3.4560005 <-- SPRD
 Delta: O_D= -0.4605689E-13 O_OD= -0.3889467E-14 O_TOT= -0.4973799E-13 <-- DLTA
 ------------------------------------------------------------------------------

 Writing checkpoint file carbyne.chk... done

 Final State
  WF centre and spread    1  ( -0.004110, -5.000000,  5.000000 )     0.86371873
  WF centre and spread    2  ( -0.004091,  5.000000,  5.000000 )     0.86427463
  WF centre and spread    3  (  1.268834, -5.000000, -5.000000 )     0.86371278
  WF centre and spread    4  (  1.268854, -5.000000,  5.000000 )     0.86429432
  Sum of centres and spreads (  2.529487,-10.000000, 10.000000 )     3.45600046
 
         Spreads (Ang^2)       Omega I      =     3.454321015
        ================       Omega D      =     0.000000000
                               Omega OD     =     0.001679448
    Final Spread (Ang^2)       Omega Total  =     3.456000464
 ------------------------------------------------------------------------------
 Time for wannierise            2.370 (sec)

 Writing checkpoint file carbyne.chk... done

 *---------------------------------------------------------------------------*
 |                               PLOTTING                                    |
 *---------------------------------------------------------------------------*
 
      Wannier Function Num:    1       Maximum Im/Re Ratio =    0.066977
      Wannier Function Num:    2       Maximum Im/Re Ratio =    0.064021
      Wannier Function Num:    3       Maximum Im/Re Ratio =    0.063951
      Wannier Function Num:    4       Maximum Im/Re Ratio =    0.060165
  
 Time for plotting             43.539 (sec)
 Total Execution Time          88.015 (sec)

 *===========================================================================*
 |                             TIMING INFORMATION                            |
 *===========================================================================*
 |    Tag                                                Ncalls      Time (s)|
 |---------------------------------------------------------------------------|
 |kmesh: get                                        :         1         0.069|
 |overlap: allocate                                 :         1         0.000|
 |overlap: read                                     :         1         1.241|
 |dis: main                                         :         1        40.750|
 |wann: main                                        :         1         2.370|
 |plot: main                                        :         1        43.539|
 *---------------------------------------------------------------------------*
 
 All done: wannier90 exiting
