
     Program PWSCF v.6.7MaX starts on 24Jun2021 at 21:27:20 

     This program is part of the open-source Quantum ESPRESSO suite
     for quantum simulation of materials; please cite
         "P. Giannozzi et al., J. Phys.:Condens. Matter 21 395502 (2009);
         "P. Giannozzi et al., J. Phys.:Condens. Matter 29 465901 (2017);
          URL http://www.quantum-espresso.org", 
     in publications or presentations arising from this work. More details at
     http://www.quantum-espresso.org/quote

     Parallel version (MPI & OpenMP), running on      56 processor cores
     Number of MPI processes:                28
     Threads/MPI process:                     2

     MPI processes distributed on     1 nodes
     K-points division:     npool     =      28
     Waiting for input...
     Reading input from standard input
Warning: card &IONS ignored
Warning: card     ION_DYNAMICS = "BFGS" ignored
Warning: card / ignored

     Current dimensions of program PWSCF are:
     Max number of different atomic species (ntypx) = 10
     Max number of k-points (npk) =  40000
     Max angular momentum in pseudopotentials (lmaxx) =  3
     Message from routine iosys:
     wrong startingpot: use default (2)

     Atomic positions and unit cell read from directory:
     ./outdir/carbyne.save/
     Atomic positions from file used, from input discarded
 
     file C.pbe-n-kjpaw_psl.1.0.0.UPF: wavefunction(s)  2S 2P renormalized

     Subspace diagonalization in iterative solution of the eigenvalue problem:
     a serial algorithm will be used

     Message from routine setup:
     using ibrav=0 with symmetry is DISCOURAGED, use correct ibrav instead
 
     G-vector sticks info
     --------------------
     sticks:   dense  smooth     PW     G-vecs:    dense   smooth      PW
     Sum        2927    1445    511               233967    82581   17109
 


     bravais-lattice index     =            0
     lattice parameter (alat)  =       4.8482  a.u.
     unit-cell volume          =    1731.3136 (a.u.)^3
     number of atoms/cell      =            2
     number of atomic types    =            1
     number of electrons       =         8.00
     number of Kohn-Sham states=           56
     kinetic-energy cutoff     =      50.0000  Ry
     charge density cutoff     =     400.0000  Ry
     Exchange-correlation= SLA  PW   PBX  PBC
                           (   1   4   3   4   0   0   0)

     celldm(1)=   4.848172  celldm(2)=   0.000000  celldm(3)=   0.000000
     celldm(4)=   0.000000  celldm(5)=   0.000000  celldm(6)=   0.000000

     crystal axes: (cart. coord. in units of alat)
               a(1) = (   1.000000   0.000000   0.000000 )  
               a(2) = (   0.000000   3.897812   0.000000 )  
               a(3) = (   0.000000   0.000000   3.897812 )  

     reciprocal axes: (cart. coord. in units 2 pi/alat)
               b(1) = (  1.000000  0.000000  0.000000 )  
               b(2) = (  0.000000  0.256554  0.000000 )  
               b(3) = (  0.000000  0.000000  0.256554 )  


     PseudoPot. # 1 for C  read from file:
     ./pseudo/C.pbe-n-kjpaw_psl.1.0.0.UPF
     MD5 check sum: 6fec8efd722f5d988670a8dc528584a2
     Pseudo is Projector augmented-wave + core cor, Zval =  4.0
     Generated using "atomic" code by A. Dal Corso  v.5.1.2
     Shape of augmentation charge: PSQ
     Using radial grid of 1073 points,  4 beta functions with: 
                l(1) =   0
                l(2) =   0
                l(3) =   1
                l(4) =   1
     Q(r) pseudized with 0 coefficients 


     atomic species   valence    mass     pseudopotential
        C              4.00    12.01070     C ( 1.00)

      8 Sym. Ops. (no inversion) found


                                    s                        frac. trans.

      isym =  1     identity                                     

 cryst.   s( 1) = (     1          0          0      )
                  (     0          1          0      )
                  (     0          0          1      )

 cart.    s( 1) = (  1.0000000  0.0000000  0.0000000 )
                  (  0.0000000  1.0000000  0.0000000 )
                  (  0.0000000  0.0000000  1.0000000 )


      isym =  2     180 deg rotation - cart. axis [1,0,0]        

 cryst.   s( 2) = (     1          0          0      )
                  (     0         -1          0      )
                  (     0          0         -1      )

 cart.    s( 2) = (  1.0000000  0.0000000  0.0000000 )
                  (  0.0000000 -1.0000000  0.0000000 )
                  (  0.0000000  0.0000000 -1.0000000 )


      isym =  3      90 deg rotation - cart. axis [-1,0,0]       

 cryst.   s( 3) = (     1          0          0      )
                  (     0          0         -1      )
                  (     0          1          0      )

 cart.    s( 3) = (  1.0000000  0.0000000  0.0000000 )
                  (  0.0000000  0.0000000  1.0000000 )
                  (  0.0000000 -1.0000000  0.0000000 )


      isym =  4      90 deg rotation - cart. axis [1,0,0]        

 cryst.   s( 4) = (     1          0          0      )
                  (     0          0          1      )
                  (     0         -1          0      )

 cart.    s( 4) = (  1.0000000  0.0000000  0.0000000 )
                  (  0.0000000  0.0000000 -1.0000000 )
                  (  0.0000000  1.0000000  0.0000000 )


      isym =  5     inv. 180 deg rotation - cart. axis [0,0,1]   

 cryst.   s( 5) = (     1          0          0      )
                  (     0          1          0      )
                  (     0          0         -1      )

 cart.    s( 5) = (  1.0000000  0.0000000  0.0000000 )
                  (  0.0000000  1.0000000  0.0000000 )
                  (  0.0000000  0.0000000 -1.0000000 )


      isym =  6     inv. 180 deg rotation - cart. axis [0,1,0]   

 cryst.   s( 6) = (     1          0          0      )
                  (     0         -1          0      )
                  (     0          0          1      )

 cart.    s( 6) = (  1.0000000  0.0000000  0.0000000 )
                  (  0.0000000 -1.0000000  0.0000000 )
                  (  0.0000000  0.0000000  1.0000000 )


      isym =  7     inv. 180 deg rotation - cart. axis [0,1,1]   

 cryst.   s( 7) = (     1          0          0      )
                  (     0          0         -1      )
                  (     0         -1          0      )

 cart.    s( 7) = (  1.0000000  0.0000000  0.0000000 )
                  (  0.0000000  0.0000000 -1.0000000 )
                  (  0.0000000 -1.0000000  0.0000000 )


      isym =  8     inv. 180 deg rotation - cart. axis [0,1,-1]  

 cryst.   s( 8) = (     1          0          0      )
                  (     0          0          1      )
                  (     0          1          0      )

 cart.    s( 8) = (  1.0000000  0.0000000  0.0000000 )
                  (  0.0000000  0.0000000  1.0000000 )
                  (  0.0000000  1.0000000  0.0000000 )


   Cartesian axes

     site n.     atom                  positions (alat units)
         1           C   tau(   1) = (   0.0001503   1.9489059   1.9489059  )
         2           C   tau(   2) = (   0.4928235   1.9489059   1.9489059  )

   Crystallographic axes

     site n.     atom                  positions (cryst. coord.)
         1           C   tau(   1) = (  0.0001503  0.5000000  0.5000000  )
         2           C   tau(   2) = (  0.4928235  0.5000000  0.5000000  )

     number of k points=   100
                       cart. coord. in units 2pi/alat
        k(    1) = (   0.0000000   0.0000000   0.0000000), wk =   0.0200000
        k(    2) = (   0.0100000   0.0000000   0.0000000), wk =   0.0200000
        k(    3) = (   0.0200000   0.0000000   0.0000000), wk =   0.0200000
        k(    4) = (   0.0300000   0.0000000   0.0000000), wk =   0.0200000
        k(    5) = (   0.0400000   0.0000000   0.0000000), wk =   0.0200000
        k(    6) = (   0.0500000   0.0000000   0.0000000), wk =   0.0200000
        k(    7) = (   0.0600000   0.0000000   0.0000000), wk =   0.0200000
        k(    8) = (   0.0700000   0.0000000   0.0000000), wk =   0.0200000
        k(    9) = (   0.0800000   0.0000000   0.0000000), wk =   0.0200000
        k(   10) = (   0.0900000   0.0000000   0.0000000), wk =   0.0200000
        k(   11) = (   0.1000000   0.0000000   0.0000000), wk =   0.0200000
        k(   12) = (   0.1100000   0.0000000   0.0000000), wk =   0.0200000
        k(   13) = (   0.1200000   0.0000000   0.0000000), wk =   0.0200000
        k(   14) = (   0.1300000   0.0000000   0.0000000), wk =   0.0200000
        k(   15) = (   0.1400000   0.0000000   0.0000000), wk =   0.0200000
        k(   16) = (   0.1500000   0.0000000   0.0000000), wk =   0.0200000
        k(   17) = (   0.1600000   0.0000000   0.0000000), wk =   0.0200000
        k(   18) = (   0.1700000   0.0000000   0.0000000), wk =   0.0200000
        k(   19) = (   0.1800000   0.0000000   0.0000000), wk =   0.0200000
        k(   20) = (   0.1900000   0.0000000   0.0000000), wk =   0.0200000
        k(   21) = (   0.2000000   0.0000000   0.0000000), wk =   0.0200000
        k(   22) = (   0.2100000   0.0000000   0.0000000), wk =   0.0200000
        k(   23) = (   0.2200000   0.0000000   0.0000000), wk =   0.0200000
        k(   24) = (   0.2300000   0.0000000   0.0000000), wk =   0.0200000
        k(   25) = (   0.2400000   0.0000000   0.0000000), wk =   0.0200000
        k(   26) = (   0.2500000   0.0000000   0.0000000), wk =   0.0200000
        k(   27) = (   0.2600000   0.0000000   0.0000000), wk =   0.0200000
        k(   28) = (   0.2700000   0.0000000   0.0000000), wk =   0.0200000
        k(   29) = (   0.2800000   0.0000000   0.0000000), wk =   0.0200000
        k(   30) = (   0.2900000   0.0000000   0.0000000), wk =   0.0200000
        k(   31) = (   0.3000000   0.0000000   0.0000000), wk =   0.0200000
        k(   32) = (   0.3100000   0.0000000   0.0000000), wk =   0.0200000
        k(   33) = (   0.3200000   0.0000000   0.0000000), wk =   0.0200000
        k(   34) = (   0.3300000   0.0000000   0.0000000), wk =   0.0200000
        k(   35) = (   0.3400000   0.0000000   0.0000000), wk =   0.0200000
        k(   36) = (   0.3500000   0.0000000   0.0000000), wk =   0.0200000
        k(   37) = (   0.3600000   0.0000000   0.0000000), wk =   0.0200000
        k(   38) = (   0.3700000   0.0000000   0.0000000), wk =   0.0200000
        k(   39) = (   0.3800000   0.0000000   0.0000000), wk =   0.0200000
        k(   40) = (   0.3900000   0.0000000   0.0000000), wk =   0.0200000
        k(   41) = (   0.4000000   0.0000000   0.0000000), wk =   0.0200000
        k(   42) = (   0.4100000   0.0000000   0.0000000), wk =   0.0200000
        k(   43) = (   0.4200000   0.0000000   0.0000000), wk =   0.0200000
        k(   44) = (   0.4300000   0.0000000   0.0000000), wk =   0.0200000
        k(   45) = (   0.4400000   0.0000000   0.0000000), wk =   0.0200000
        k(   46) = (   0.4500000   0.0000000   0.0000000), wk =   0.0200000
        k(   47) = (   0.4600000   0.0000000   0.0000000), wk =   0.0200000
        k(   48) = (   0.4700000   0.0000000   0.0000000), wk =   0.0200000
        k(   49) = (   0.4800000   0.0000000   0.0000000), wk =   0.0200000
        k(   50) = (   0.4900000   0.0000000   0.0000000), wk =   0.0200000
        k(   51) = (   0.5000000   0.0000000   0.0000000), wk =   0.0200000
        k(   52) = (   0.5100000   0.0000000   0.0000000), wk =   0.0200000
        k(   53) = (   0.5200000   0.0000000   0.0000000), wk =   0.0200000
        k(   54) = (   0.5300000   0.0000000   0.0000000), wk =   0.0200000
        k(   55) = (   0.5400000   0.0000000   0.0000000), wk =   0.0200000
        k(   56) = (   0.5500000   0.0000000   0.0000000), wk =   0.0200000
        k(   57) = (   0.5600000   0.0000000   0.0000000), wk =   0.0200000
        k(   58) = (   0.5700000   0.0000000   0.0000000), wk =   0.0200000
        k(   59) = (   0.5800000   0.0000000   0.0000000), wk =   0.0200000
        k(   60) = (   0.5900000   0.0000000   0.0000000), wk =   0.0200000
        k(   61) = (   0.6000000   0.0000000   0.0000000), wk =   0.0200000
        k(   62) = (   0.6100000   0.0000000   0.0000000), wk =   0.0200000
        k(   63) = (   0.6200000   0.0000000   0.0000000), wk =   0.0200000
        k(   64) = (   0.6300000   0.0000000   0.0000000), wk =   0.0200000
        k(   65) = (   0.6400000   0.0000000   0.0000000), wk =   0.0200000
        k(   66) = (   0.6500000   0.0000000   0.0000000), wk =   0.0200000
        k(   67) = (   0.6600000   0.0000000   0.0000000), wk =   0.0200000
        k(   68) = (   0.6700000   0.0000000   0.0000000), wk =   0.0200000
        k(   69) = (   0.6800000   0.0000000   0.0000000), wk =   0.0200000
        k(   70) = (   0.6900000   0.0000000   0.0000000), wk =   0.0200000
        k(   71) = (   0.7000000   0.0000000   0.0000000), wk =   0.0200000
        k(   72) = (   0.7100000   0.0000000   0.0000000), wk =   0.0200000
        k(   73) = (   0.7200000   0.0000000   0.0000000), wk =   0.0200000
        k(   74) = (   0.7300000   0.0000000   0.0000000), wk =   0.0200000
        k(   75) = (   0.7400000   0.0000000   0.0000000), wk =   0.0200000
        k(   76) = (   0.7500000   0.0000000   0.0000000), wk =   0.0200000
        k(   77) = (   0.7600000   0.0000000   0.0000000), wk =   0.0200000
        k(   78) = (   0.7700000   0.0000000   0.0000000), wk =   0.0200000
        k(   79) = (   0.7800000   0.0000000   0.0000000), wk =   0.0200000
        k(   80) = (   0.7900000   0.0000000   0.0000000), wk =   0.0200000
        k(   81) = (   0.8000000   0.0000000   0.0000000), wk =   0.0200000
        k(   82) = (   0.8100000   0.0000000   0.0000000), wk =   0.0200000
        k(   83) = (   0.8200000   0.0000000   0.0000000), wk =   0.0200000
        k(   84) = (   0.8300000   0.0000000   0.0000000), wk =   0.0200000
        k(   85) = (   0.8400000   0.0000000   0.0000000), wk =   0.0200000
        k(   86) = (   0.8500000   0.0000000   0.0000000), wk =   0.0200000
        k(   87) = (   0.8600000   0.0000000   0.0000000), wk =   0.0200000
        k(   88) = (   0.8700000   0.0000000   0.0000000), wk =   0.0200000
        k(   89) = (   0.8800000   0.0000000   0.0000000), wk =   0.0200000
        k(   90) = (   0.8900000   0.0000000   0.0000000), wk =   0.0200000
        k(   91) = (   0.9000000   0.0000000   0.0000000), wk =   0.0200000
        k(   92) = (   0.9100000   0.0000000   0.0000000), wk =   0.0200000
        k(   93) = (   0.9200000   0.0000000   0.0000000), wk =   0.0200000
        k(   94) = (   0.9300000   0.0000000   0.0000000), wk =   0.0200000
        k(   95) = (   0.9400000   0.0000000   0.0000000), wk =   0.0200000
        k(   96) = (   0.9500000   0.0000000   0.0000000), wk =   0.0200000
        k(   97) = (   0.9600000   0.0000000   0.0000000), wk =   0.0200000
        k(   98) = (   0.9700000   0.0000000   0.0000000), wk =   0.0200000
        k(   99) = (   0.9800000   0.0000000   0.0000000), wk =   0.0200000
        k(  100) = (   0.9900000   0.0000000   0.0000000), wk =   0.0200000

                       cryst. coord.
        k(    1) = (   0.0000000   0.0000000   0.0000000), wk =   0.0200000
        k(    2) = (   0.0100000   0.0000000   0.0000000), wk =   0.0200000
        k(    3) = (   0.0200000   0.0000000   0.0000000), wk =   0.0200000
        k(    4) = (   0.0300000   0.0000000   0.0000000), wk =   0.0200000
        k(    5) = (   0.0400000   0.0000000   0.0000000), wk =   0.0200000
        k(    6) = (   0.0500000   0.0000000   0.0000000), wk =   0.0200000
        k(    7) = (   0.0600000   0.0000000   0.0000000), wk =   0.0200000
        k(    8) = (   0.0700000   0.0000000   0.0000000), wk =   0.0200000
        k(    9) = (   0.0800000   0.0000000   0.0000000), wk =   0.0200000
        k(   10) = (   0.0900000   0.0000000   0.0000000), wk =   0.0200000
        k(   11) = (   0.1000000   0.0000000   0.0000000), wk =   0.0200000
        k(   12) = (   0.1100000   0.0000000   0.0000000), wk =   0.0200000
        k(   13) = (   0.1200000   0.0000000   0.0000000), wk =   0.0200000
        k(   14) = (   0.1300000   0.0000000   0.0000000), wk =   0.0200000
        k(   15) = (   0.1400000   0.0000000   0.0000000), wk =   0.0200000
        k(   16) = (   0.1500000   0.0000000   0.0000000), wk =   0.0200000
        k(   17) = (   0.1600000   0.0000000   0.0000000), wk =   0.0200000
        k(   18) = (   0.1700000   0.0000000   0.0000000), wk =   0.0200000
        k(   19) = (   0.1800000   0.0000000   0.0000000), wk =   0.0200000
        k(   20) = (   0.1900000   0.0000000   0.0000000), wk =   0.0200000
        k(   21) = (   0.2000000   0.0000000   0.0000000), wk =   0.0200000
        k(   22) = (   0.2100000   0.0000000   0.0000000), wk =   0.0200000
        k(   23) = (   0.2200000   0.0000000   0.0000000), wk =   0.0200000
        k(   24) = (   0.2300000   0.0000000   0.0000000), wk =   0.0200000
        k(   25) = (   0.2400000   0.0000000   0.0000000), wk =   0.0200000
        k(   26) = (   0.2500000   0.0000000   0.0000000), wk =   0.0200000
        k(   27) = (   0.2600000   0.0000000   0.0000000), wk =   0.0200000
        k(   28) = (   0.2700000   0.0000000   0.0000000), wk =   0.0200000
        k(   29) = (   0.2800000   0.0000000   0.0000000), wk =   0.0200000
        k(   30) = (   0.2900000   0.0000000   0.0000000), wk =   0.0200000
        k(   31) = (   0.3000000   0.0000000   0.0000000), wk =   0.0200000
        k(   32) = (   0.3100000   0.0000000   0.0000000), wk =   0.0200000
        k(   33) = (   0.3200000   0.0000000   0.0000000), wk =   0.0200000
        k(   34) = (   0.3300000   0.0000000   0.0000000), wk =   0.0200000
        k(   35) = (   0.3400000   0.0000000   0.0000000), wk =   0.0200000
        k(   36) = (   0.3500000   0.0000000   0.0000000), wk =   0.0200000
        k(   37) = (   0.3600000   0.0000000   0.0000000), wk =   0.0200000
        k(   38) = (   0.3700000   0.0000000   0.0000000), wk =   0.0200000
        k(   39) = (   0.3800000   0.0000000   0.0000000), wk =   0.0200000
        k(   40) = (   0.3900000   0.0000000   0.0000000), wk =   0.0200000
        k(   41) = (   0.4000000   0.0000000   0.0000000), wk =   0.0200000
        k(   42) = (   0.4100000   0.0000000   0.0000000), wk =   0.0200000
        k(   43) = (   0.4200000   0.0000000   0.0000000), wk =   0.0200000
        k(   44) = (   0.4300000   0.0000000   0.0000000), wk =   0.0200000
        k(   45) = (   0.4400000   0.0000000   0.0000000), wk =   0.0200000
        k(   46) = (   0.4500000   0.0000000   0.0000000), wk =   0.0200000
        k(   47) = (   0.4600000   0.0000000   0.0000000), wk =   0.0200000
        k(   48) = (   0.4700000   0.0000000   0.0000000), wk =   0.0200000
        k(   49) = (   0.4800000   0.0000000   0.0000000), wk =   0.0200000
        k(   50) = (   0.4900000   0.0000000   0.0000000), wk =   0.0200000
        k(   51) = (   0.5000000   0.0000000   0.0000000), wk =   0.0200000
        k(   52) = (   0.5100000   0.0000000   0.0000000), wk =   0.0200000
        k(   53) = (   0.5200000   0.0000000   0.0000000), wk =   0.0200000
        k(   54) = (   0.5300000   0.0000000   0.0000000), wk =   0.0200000
        k(   55) = (   0.5400000   0.0000000   0.0000000), wk =   0.0200000
        k(   56) = (   0.5500000   0.0000000   0.0000000), wk =   0.0200000
        k(   57) = (   0.5600000   0.0000000   0.0000000), wk =   0.0200000
        k(   58) = (   0.5700000   0.0000000   0.0000000), wk =   0.0200000
        k(   59) = (   0.5800000   0.0000000   0.0000000), wk =   0.0200000
        k(   60) = (   0.5900000   0.0000000   0.0000000), wk =   0.0200000
        k(   61) = (   0.6000000   0.0000000   0.0000000), wk =   0.0200000
        k(   62) = (   0.6100000   0.0000000   0.0000000), wk =   0.0200000
        k(   63) = (   0.6200000   0.0000000   0.0000000), wk =   0.0200000
        k(   64) = (   0.6300000   0.0000000   0.0000000), wk =   0.0200000
        k(   65) = (   0.6400000   0.0000000   0.0000000), wk =   0.0200000
        k(   66) = (   0.6500000   0.0000000   0.0000000), wk =   0.0200000
        k(   67) = (   0.6600000   0.0000000   0.0000000), wk =   0.0200000
        k(   68) = (   0.6700000   0.0000000   0.0000000), wk =   0.0200000
        k(   69) = (   0.6800000   0.0000000   0.0000000), wk =   0.0200000
        k(   70) = (   0.6900000   0.0000000   0.0000000), wk =   0.0200000
        k(   71) = (   0.7000000   0.0000000   0.0000000), wk =   0.0200000
        k(   72) = (   0.7100000   0.0000000   0.0000000), wk =   0.0200000
        k(   73) = (   0.7200000   0.0000000   0.0000000), wk =   0.0200000
        k(   74) = (   0.7300000   0.0000000   0.0000000), wk =   0.0200000
        k(   75) = (   0.7400000   0.0000000   0.0000000), wk =   0.0200000
        k(   76) = (   0.7500000   0.0000000   0.0000000), wk =   0.0200000
        k(   77) = (   0.7600000   0.0000000   0.0000000), wk =   0.0200000
        k(   78) = (   0.7700000   0.0000000   0.0000000), wk =   0.0200000
        k(   79) = (   0.7800000   0.0000000   0.0000000), wk =   0.0200000
        k(   80) = (   0.7900000   0.0000000   0.0000000), wk =   0.0200000
        k(   81) = (   0.8000000   0.0000000   0.0000000), wk =   0.0200000
        k(   82) = (   0.8100000   0.0000000   0.0000000), wk =   0.0200000
        k(   83) = (   0.8200000   0.0000000   0.0000000), wk =   0.0200000
        k(   84) = (   0.8300000   0.0000000   0.0000000), wk =   0.0200000
        k(   85) = (   0.8400000   0.0000000   0.0000000), wk =   0.0200000
        k(   86) = (   0.8500000   0.0000000   0.0000000), wk =   0.0200000
        k(   87) = (   0.8600000   0.0000000   0.0000000), wk =   0.0200000
        k(   88) = (   0.8700000   0.0000000   0.0000000), wk =   0.0200000
        k(   89) = (   0.8800000   0.0000000   0.0000000), wk =   0.0200000
        k(   90) = (   0.8900000   0.0000000   0.0000000), wk =   0.0200000
        k(   91) = (   0.9000000   0.0000000   0.0000000), wk =   0.0200000
        k(   92) = (   0.9100000   0.0000000   0.0000000), wk =   0.0200000
        k(   93) = (   0.9200000   0.0000000   0.0000000), wk =   0.0200000
        k(   94) = (   0.9300000   0.0000000   0.0000000), wk =   0.0200000
        k(   95) = (   0.9400000   0.0000000   0.0000000), wk =   0.0200000
        k(   96) = (   0.9500000   0.0000000   0.0000000), wk =   0.0200000
        k(   97) = (   0.9600000   0.0000000   0.0000000), wk =   0.0200000
        k(   98) = (   0.9700000   0.0000000   0.0000000), wk =   0.0200000
        k(   99) = (   0.9800000   0.0000000   0.0000000), wk =   0.0200000
        k(  100) = (   0.9900000   0.0000000   0.0000000), wk =   0.0200000

     Dense  grid:   233967 G-vectors     FFT dimensions: (  32, 125, 125)

     Smooth grid:    82581 G-vectors     FFT dimensions: (  24,  90,  90)

     Dynamical RAM for                 wfc:       8.83 MB

     Dynamical RAM for     wfc (w. buffer):       8.83 MB

     Dynamical RAM for           str. fact:       3.57 MB

     Dynamical RAM for           local pot:       0.00 MB

     Dynamical RAM for          nlocal pot:       2.52 MB

     Dynamical RAM for                qrad:       0.46 MB

     Dynamical RAM for          rho,v,vnew:      22.15 MB

     Dynamical RAM for           G-vectors:      14.02 MB

     Dynamical RAM for          h,s,v(r/c):       0.57 MB

     Dynamical RAM for          <psi|beta>:       0.01 MB

     Dynamical RAM for                 psi:      17.67 MB

     Dynamical RAM for                hpsi:      17.67 MB

     Dynamical RAM for                spsi:      17.67 MB

     Dynamical RAM for      wfcinit/wfcrot:      17.74 MB

     Dynamical RAM for           addusdens:       9.18 MB

     Estimated static dynamical RAM per process >      77.77 MB

     Estimated max dynamical RAM per process >     131.36 MB

     Estimated total dynamical RAM >       3.59 GB

     Check: negative core charge=   -0.000002

     The potential is recalculated from file :
     ./outdir/carbyne.save/charge-density


     negative rho (up, down):  1.845E-04 0.000E+00
     Starting wfcs are    8 randomized atomic wfcs +   48 random wfcs
     Checking if some PAW data can be deallocated... 

     Band Structure Calculation
     Davidson diagonalization with overlap

     Computing kpt #:     1  of     4 on this pool
     total cpu time spent up to now is       14.1 secs

     Computing kpt #:     2  of     4 on this pool
     total cpu time spent up to now is       25.5 secs

     Computing kpt #:     3  of     4 on this pool
     total cpu time spent up to now is       36.7 secs

     Computing kpt #:     4  of     4 on this pool
     total cpu time spent up to now is       44.9 secs

     ethr =  1.25E-10,  avg # of iterations = 45.5

     total cpu time spent up to now is       47.2 secs

     End of band structure calculation

          k = 0.0000 0.0000 0.0000 ( 10379 PWs)   bands (ev):

   -20.6781 -13.4758  -9.7334  -9.7334  -0.1569   1.3960   1.3960   1.4422
     1.6584   2.4009   3.0326   3.0326   3.5053   4.1740   4.5464   5.9451
     6.0337   6.0337   6.5193   6.7531   6.7531   7.2778   7.3528   7.3528
     7.5137   8.0011   8.0011   9.2628  10.5829  11.0964  11.8462  11.8462
    12.1595  13.7745  13.7745  14.0819  14.2534  14.4896  14.5509  14.5509
    14.5627  15.9394  15.9394  17.1841  17.3384  18.4566  18.4566  18.9391
    19.1951  19.1951  19.3800  20.1073  20.1073  21.1345  21.3378  21.7920

     occupation numbers 
     1.0000   1.0000   1.0000   1.0000   0.0000   0.0000   0.0000   0.0000
     0.0000   0.0000   0.0000   0.0000   0.0000   0.0000   0.0000   0.0000
     0.0000   0.0000   0.0000   0.0000   0.0000   0.0000   0.0000   0.0000
     0.0000   0.0000   0.0000   0.0000   0.0000   0.0000   0.0000   0.0000
     0.0000   0.0000   0.0000   0.0000   0.0000   0.0000   0.0000   0.0000
     0.0000   0.0000   0.0000   0.0000   0.0000   0.0000   0.0000   0.0000
     0.0000   0.0000   0.0000   0.0000   0.0000   0.0000   0.0000   0.0000

          k = 0.0100 0.0000 0.0000 ( 10379 PWs)   bands (ev):

   -20.6768 -13.4785  -9.7313  -9.7313  -0.1547   1.3983   1.3983   1.4444
     1.6605   2.4032   3.0349   3.0349   3.5075   4.1778   4.5486   5.9474
     6.0360   6.0360   6.5215   6.7402   6.7402   7.2801   7.3551   7.3551
     7.5160   8.0034   8.0034   9.2648  10.5852  11.0986  11.8484  11.8484
    12.1618  13.7767  13.7767  14.0842  14.2556  14.4919  14.5531  14.5531
    14.5650  15.9417  15.9417  17.1860  17.3407  18.4649  18.4649  18.9414
    19.1974  19.1974  19.3823  20.1096  20.1096  21.1368  21.3393  21.6640

     occupation numbers 
     1.0000   1.0000   1.0000   1.0000   0.0000   0.0000   0.0000   0.0000
     0.0000   0.0000   0.0000   0.0000   0.0000   0.0000   0.0000   0.0000
     0.0000   0.0000   0.0000   0.0000   0.0000   0.0000   0.0000   0.0000
     0.0000   0.0000   0.0000   0.0000   0.0000   0.0000   0.0000   0.0000
     0.0000   0.0000   0.0000   0.0000   0.0000   0.0000   0.0000   0.0000
     0.0000   0.0000   0.0000   0.0000   0.0000   0.0000   0.0000   0.0000
     0.0000   0.0000   0.0000   0.0000   0.0000   0.0000   0.0000   0.0000

          k = 0.0200 0.0000 0.0000 ( 10387 PWs)   bands (ev):

   -20.6729 -13.4868  -9.7248  -9.7248  -0.1481   1.4051   1.4051   1.4513
     1.6671   2.4100   3.0417   3.0417   3.5141   4.1890   4.5555   5.9543
     6.0428   6.0428   6.5282   6.7020   6.7020   7.2870   7.3619   7.3619
     7.5228   8.0102   8.0102   9.2707  10.5920  11.1055  11.8553  11.8553
    12.1685  13.7836  13.7836  14.0910  14.2622  14.4987  14.5600  14.5600
    14.5719  15.9485  15.9485  17.1916  17.3475  18.4889  18.4889  18.9482
    19.2042  19.2042  19.3891  20.1163  20.1163  21.1436  21.3427  21.3736

     occupation numbers 
     1.0000   1.0000   1.0000   1.0000   0.0000   0.0000   0.0000   0.0000
     0.0000   0.0000   0.0000   0.0000   0.0000   0.0000   0.0000   0.0000
     0.0000   0.0000   0.0000   0.0000   0.0000   0.0000   0.0000   0.0000
     0.0000   0.0000   0.0000   0.0000   0.0000   0.0000   0.0000   0.0000
     0.0000   0.0000   0.0000   0.0000   0.0000   0.0000   0.0000   0.0000
     0.0000   0.0000   0.0000   0.0000   0.0000   0.0000   0.0000   0.0000
     0.0000   0.0000   0.0000   0.0000   0.0000   0.0000   0.0000   0.0000

          k = 0.0300 0.0000 0.0000 ( 10379 PWs)   bands (ev):

   -20.6665 -13.5004  -9.7140  -9.7140  -0.1371   1.4165   1.4165   1.4627
     1.6781   2.4214   3.0531   3.0531   3.5250   4.2077   4.5669   5.9657
     6.0542   6.0542   6.5394   6.6388   6.6388   7.2984   7.3734   7.3734
     7.5343   8.0215   8.0215   9.2806  10.6035  11.1169  11.8667  11.8667
    12.1797  13.7949  13.7949  14.1025  14.2732  14.5102  14.5714  14.5714
    14.5833  15.9598  15.9598  17.2009  17.3589  18.5267  18.5267  18.9596
    19.2156  19.2156  19.4005  20.1275  20.1275  21.0168  21.1551  21.3525

     occupation numbers 
     1.0000   1.0000   1.0000   1.0000   0.0000   0.0000   0.0000   0.0000
     0.0000   0.0000   0.0000   0.0000   0.0000   0.0000   0.0000   0.0000
     0.0000   0.0000   0.0000   0.0000   0.0000   0.0000   0.0000   0.0000
     0.0000   0.0000   0.0000   0.0000   0.0000   0.0000   0.0000   0.0000
     0.0000   0.0000   0.0000   0.0000   0.0000   0.0000   0.0000   0.0000
     0.0000   0.0000   0.0000   0.0000   0.0000   0.0000   0.0000   0.0000
     0.0000   0.0000   0.0000   0.0000   0.0000   0.0000   0.0000   0.0000

          k = 0.0400 0.0000 0.0000 ( 10355 PWs)   bands (ev):

   -20.6574 -13.5194  -9.6989  -9.6989  -0.1216   1.4324   1.4324   1.4787
     1.6935   2.4374   3.0690   3.0690   3.5404   4.2337   4.5829   5.9817
     6.0701   6.0701   6.5518   6.5518   6.5551   7.3144   7.3893   7.3893
     7.5503   8.0374   8.0374   9.2944  10.6195  11.1329  11.8827  11.8827
    12.1954  13.8108  13.8108  14.1185  14.2886  14.5262  14.5874  14.5874
    14.5993  15.9756  15.9756  17.2140  17.3749  18.5745  18.5745  18.9756
    19.2316  19.2316  19.4165  20.1432  20.1432  20.6374  21.1711  21.3636

     occupation numbers 
     1.0000   1.0000   1.0000   1.0000   0.0000   0.0000   0.0000   0.0000
     0.0000   0.0000   0.0000   0.0000   0.0000   0.0000   0.0000   0.0000
     0.0000   0.0000   0.0000   0.0000   0.0000   0.0000   0.0000   0.0000
     0.0000   0.0000   0.0000   0.0000   0.0000   0.0000   0.0000   0.0000
     0.0000   0.0000   0.0000   0.0000   0.0000   0.0000   0.0000   0.0000
     0.0000   0.0000   0.0000   0.0000   0.0000   0.0000   0.0000   0.0000
     0.0000   0.0000   0.0000   0.0000   0.0000   0.0000   0.0000   0.0000

          k = 0.0500 0.0000 0.0000 ( 10355 PWs)   bands (ev):

   -20.6458 -13.5438  -9.6795  -9.6795  -0.1018   1.4528   1.4528   1.4993
     1.7132   2.4580   3.0895   3.0895   3.5601   4.2671   4.6035   6.0022
     6.0905   6.0905   6.4423   6.4423   6.5753   7.3350   7.4099   7.4099
     7.5708   8.0578   8.0578   9.3121  10.6400  11.1535  11.9032  11.9032
    12.2156  13.8313  13.8313  14.1390  14.3085  14.5467  14.6080  14.6080
    14.6199  15.9960  15.9960  17.2307  17.3955  18.6269  18.6269  18.9962
    19.2521  19.2521  19.4371  20.1634  20.1634  20.2479  21.1916  21.3778

     occupation numbers 
     1.0000   1.0000   1.0000   1.0000   0.0000   0.0000   0.0000   0.0000
     0.0000   0.0000   0.0000   0.0000   0.0000   0.0000   0.0000   0.0000
     0.0000   0.0000   0.0000   0.0000   0.0000   0.0000   0.0000   0.0000
     0.0000   0.0000   0.0000   0.0000   0.0000   0.0000   0.0000   0.0000
     0.0000   0.0000   0.0000   0.0000   0.0000   0.0000   0.0000   0.0000
     0.0000   0.0000   0.0000   0.0000   0.0000   0.0000   0.0000   0.0000
     0.0000   0.0000   0.0000   0.0000   0.0000   0.0000   0.0000   0.0000

          k = 0.0600 0.0000 0.0000 ( 10339 PWs)   bands (ev):

   -20.6316 -13.5735  -9.6557  -9.6557  -0.0775   1.4779   1.4779   1.5244
     1.7373   2.4831   3.1146   3.1146   3.5842   4.3076   4.6286   6.0274
     6.1153   6.1153   6.3117   6.3117   6.6000   7.3601   7.4350   7.4350
     7.5960   8.0827   8.0827   9.3338  10.6651  11.1786  11.9283  11.9283
    12.2403  13.8563  13.8563  14.1642  14.3327  14.5719  14.6331  14.6331
    14.6450  16.0209  16.0209  17.2512  17.4206  18.6761  18.6761  19.0213
    19.2772  19.2772  19.4622  19.8545  20.1880  20.1880  21.2167  21.3952

     occupation numbers 
     1.0000   1.0000   1.0000   1.0000   0.0000   0.0000   0.0000   0.0000
     0.0000   0.0000   0.0000   0.0000   0.0000   0.0000   0.0000   0.0000
     0.0000   0.0000   0.0000   0.0000   0.0000   0.0000   0.0000   0.0000
     0.0000   0.0000   0.0000   0.0000   0.0000   0.0000   0.0000   0.0000
     0.0000   0.0000   0.0000   0.0000   0.0000   0.0000   0.0000   0.0000
     0.0000   0.0000   0.0000   0.0000   0.0000   0.0000   0.0000   0.0000
     0.0000   0.0000   0.0000   0.0000   0.0000   0.0000   0.0000   0.0000

          k = 0.0700 0.0000 0.0000 ( 10347 PWs)   bands (ev):

   -20.6148 -13.6082  -9.6277  -9.6277  -0.0489   1.5074   1.5074   1.5541
     1.7658   2.5129   3.1442   3.1442   3.6127   4.3551   4.6583   6.0571
     6.1398   6.1399   6.1664   6.1664   6.6291   7.3898   7.4647   7.4647
     7.6257   8.1121   8.1121   9.3593  10.6948  11.2083  11.9580  11.9580
    12.2695  13.8858  13.8858  14.1939  14.3613  14.6016  14.6628  14.6628
    14.6747  16.0502  16.0502  17.2752  17.4503  18.7117  18.7117  19.0510
    19.3068  19.3068  19.4601  19.4919  20.2169  20.2169  21.2064  21.2328

     occupation numbers 
     1.0000   1.0000   1.0000   1.0000   0.0000   0.0000   0.0000   0.0000
     0.0000   0.0000   0.0000   0.0000   0.0000   0.0000   0.0000   0.0000
     0.0000   0.0000   0.0000   0.0000   0.0000   0.0000   0.0000   0.0000
     0.0000   0.0000   0.0000   0.0000   0.0000   0.0000   0.0000   0.0000
     0.0000   0.0000   0.0000   0.0000   0.0000   0.0000   0.0000   0.0000
     0.0000   0.0000   0.0000   0.0000   0.0000   0.0000   0.0000   0.0000
     0.0000   0.0000   0.0000   0.0000   0.0000   0.0000   0.0000   0.0000

          k = 0.0800 0.0000 0.0000 ( 10335 PWs)   bands (ev):

   -20.5955 -13.6481  -9.5953  -9.5953  -0.0158   1.5415   1.5415   1.5884
     1.7987   2.5471   3.1783   3.1783   3.6455   4.4095   4.6926   5.9919
     5.9919   6.0913   6.1803   6.1803   6.6627   7.4241   7.4989   7.4989
     7.6600   8.1461   8.1461   9.3888  10.7291  11.2426  11.9922  11.9922
    12.3031  13.9199  13.9199  14.2281  14.3942  14.6358  14.6971  14.6971
    14.7090  16.0841  16.0841  17.3029  17.4846  18.7209  18.7209  19.0666
    19.0853  19.3409  19.3409  19.5262  20.2502  20.2502  20.7837  20.8419

     occupation numbers 
     1.0000   1.0000   1.0000   1.0000   0.0000   0.0000   0.0000   0.0000
     0.0000   0.0000   0.0000   0.0000   0.0000   0.0000   0.0000   0.0000
     0.0000   0.0000   0.0000   0.0000   0.0000   0.0000   0.0000   0.0000
     0.0000   0.0000   0.0000   0.0000   0.0000   0.0000   0.0000   0.0000
     0.0000   0.0000   0.0000   0.0000   0.0000   0.0000   0.0000   0.0000
     0.0000   0.0000   0.0000   0.0000   0.0000   0.0000   0.0000   0.0000
     0.0000   0.0000   0.0000   0.0000   0.0000   0.0000   0.0000   0.0000

          k = 0.0900 0.0000 0.0000 ( 10343 PWs)   bands (ev):

   -20.5736 -13.6929  -9.5587  -9.5587   0.0217   1.5801   1.5801   1.6273
     1.8360   2.5860   3.2170   3.2170   3.6828   4.4706   4.7314   5.8080
     5.8081   6.1302   6.2186   6.2186   6.7008   7.4629   7.5378   7.5378
     7.6988   8.1845   8.1845   9.4222  10.7680  11.2814  12.0310  12.0310
    12.3413  13.9586  13.9586  14.2670  14.4316  14.6747  14.7359  14.7359
    14.7478  16.1225  16.1225  17.3342  17.5234  18.6751  18.6888  18.6888
    19.1241  19.3796  19.3796  19.5651  20.2878  20.2878  20.3655  20.4522

     occupation numbers 
     1.0000   1.0000   1.0000   1.0000   0.0000   0.0000   0.0000   0.0000
     0.0000   0.0000   0.0000   0.0000   0.0000   0.0000   0.0000   0.0000
     0.0000   0.0000   0.0000   0.0000   0.0000   0.0000   0.0000   0.0000
     0.0000   0.0000   0.0000   0.0000   0.0000   0.0000   0.0000   0.0000
     0.0000   0.0000   0.0000   0.0000   0.0000   0.0000   0.0000   0.0000
     0.0000   0.0000   0.0000   0.0000   0.0000   0.0000   0.0000   0.0000
     0.0000   0.0000   0.0000   0.0000   0.0000   0.0000   0.0000   0.0000

          k = 0.1000 0.0000 0.0000 ( 10355 PWs)   bands (ev):

   -20.5492 -13.7424  -9.5177  -9.5177   0.0635   1.6233   1.6233   1.6707
     1.8776   2.6294   3.2603   3.2603   3.7244   4.5381   4.7749   5.6095
     5.6096   6.1736   6.2618   6.2618   6.7433   7.5064   7.5811   7.5811
     7.7422   8.2275   8.2275   9.4594  10.8114  11.3248  12.0744  12.0744
    12.3839  14.0017  14.0017  14.3104  14.4733  14.7181  14.7794  14.7794
    14.7912  16.1654  16.1654  17.3689  17.5668  18.2862  18.6030  18.6030
    19.1675  19.4228  19.4228  19.6085  19.9519  20.0647  20.3295  20.3295

     occupation numbers 
     1.0000   1.0000   1.0000   1.0000   0.0000   0.0000   0.0000   0.0000
     0.0000   0.0000   0.0000   0.0000   0.0000   0.0000   0.0000   0.0000
     0.0000   0.0000   0.0000   0.0000   0.0000   0.0000   0.0000   0.0000
     0.0000   0.0000   0.0000   0.0000   0.0000   0.0000   0.0000   0.0000
     0.0000   0.0000   0.0000   0.0000   0.0000   0.0000   0.0000   0.0000
     0.0000   0.0000   0.0000   0.0000   0.0000   0.0000   0.0000   0.0000
     0.0000   0.0000   0.0000   0.0000   0.0000   0.0000   0.0000   0.0000

          k = 0.1100 0.0000 0.0000 ( 10367 PWs)   bands (ev):

   -20.5222 -13.7967  -9.4724  -9.4724   0.1098   1.6711   1.6711   1.7187
     1.9237   2.6774   3.3081   3.3081   3.7703   4.6118   4.8228   5.3983
     5.3983   6.2216   6.3096   6.3096   6.7904   7.5543   7.6291   7.6291
     7.7902   8.2750   8.2750   9.5005  10.8594  11.3728  12.1223  12.1223
    12.4310  14.0494  14.0494  14.3584  14.5194  14.7661  14.8274  14.8274
    14.8392  16.2128  16.2128  17.4071  17.6148  17.9004  18.4575  18.4575
    19.2155  19.4707  19.4707  19.5429  19.6565  19.6803  20.3710  20.3710

     occupation numbers 
     1.0000   1.0000   1.0000   1.0000   0.0000   0.0000   0.0000   0.0000
     0.0000   0.0000   0.0000   0.0000   0.0000   0.0000   0.0000   0.0000
     0.0000   0.0000   0.0000   0.0000   0.0000   0.0000   0.0000   0.0000
     0.0000   0.0000   0.0000   0.0000   0.0000   0.0000   0.0000   0.0000
     0.0000   0.0000   0.0000   0.0000   0.0000   0.0000   0.0000   0.0000
     0.0000   0.0000   0.0000   0.0000   0.0000   0.0000   0.0000   0.0000
     0.0000   0.0000   0.0000   0.0000   0.0000   0.0000   0.0000   0.0000

          k = 0.1200 0.0000 0.0000 ( 10367 PWs)   bands (ev):

   -20.4927 -13.8554  -9.4228  -9.4228   0.1604   1.7233   1.7233   1.7712
     1.9740   2.7299   3.3604   3.3604   3.8207   4.6914   4.8754   5.1758
     5.1758   6.2741   6.3619   6.3619   6.8419   7.6069   7.6816   7.6816
     7.8428   8.3270   8.3270   9.5454  10.9119  11.4253  12.1748  12.1748
    12.4825  14.1017  14.1017  14.4109  14.5698  14.8187  14.8799  14.8799
    14.8918  16.2646  16.2646  17.4482  17.5186  17.6673  18.2557  18.2557
    19.1384  19.2681  19.2992  19.5231  19.5231  19.7090  20.0964  20.1664

     occupation numbers 
     1.0000   1.0000   1.0000   1.0000   0.0000   0.0000   0.0000   0.0000
     0.0000   0.0000   0.0000   0.0000   0.0000   0.0000   0.0000   0.0000
     0.0000   0.0000   0.0000   0.0000   0.0000   0.0000   0.0000   0.0000
     0.0000   0.0000   0.0000   0.0000   0.0000   0.0000   0.0000   0.0000
     0.0000   0.0000   0.0000   0.0000   0.0000   0.0000   0.0000   0.0000
     0.0000   0.0000   0.0000   0.0000   0.0000   0.0000   0.0000   0.0000
     0.0000   0.0000   0.0000   0.0000   0.0000   0.0000   0.0000   0.0000

          k = 0.1300 0.0000 0.0000 ( 10343 PWs)   bands (ev):

   -20.4607 -13.9184  -9.3690  -9.3690   0.2154   1.7801   1.7801   1.8283
     2.0288   2.7871   3.4173   3.4173   3.8754   4.7766   4.9325   4.9436
     4.9436   6.3313   6.4188   6.4188   6.8978   7.6640   7.7387   7.7387
     7.8999   8.3835   8.3835   9.5941  10.9690  11.4824  12.2318  12.2318
    12.5386  14.1584  14.1584  14.4680  14.6246  14.8758  14.9370  14.9370
    14.9489  16.3210  16.3210  17.1394  17.4939  17.7244  18.0081  18.0081
    18.7385  18.9220  19.3252  19.5801  19.5801  19.6965  19.7662  19.8692

     occupation numbers 
     1.0000   1.0000   1.0000   1.0000   0.0000   0.0000   0.0000   0.0000
     0.0000   0.0000   0.0000   0.0000   0.0000   0.0000   0.0000   0.0000
     0.0000   0.0000   0.0000   0.0000   0.0000   0.0000   0.0000   0.0000
     0.0000   0.0000   0.0000   0.0000   0.0000   0.0000   0.0000   0.0000
     0.0000   0.0000   0.0000   0.0000   0.0000   0.0000   0.0000   0.0000
     0.0000   0.0000   0.0000   0.0000   0.0000   0.0000   0.0000   0.0000
     0.0000   0.0000   0.0000   0.0000   0.0000   0.0000   0.0000   0.0000

          k = 0.1400 0.0000 0.0000 ( 10343 PWs)   bands (ev):

   -20.4261 -13.9856  -9.3108  -9.3108   0.2748   1.8415   1.8415   1.8900
     2.0879   2.8488   3.4787   3.4787   3.9345   4.7031   4.7031   4.8672
     4.9942   6.3930   6.4803   6.4803   6.9582   7.7257   7.8003   7.8003
     7.9616   8.4446   8.4446   9.6466  11.0307  11.5441  12.2934  12.2934
    12.5991  14.2197  14.2197  14.5297  14.6837  14.9375  14.9987  14.9987
    15.0106  16.3818  16.3818  16.7649  17.5419  17.7267  17.7267  17.7861
    18.3432  18.5489  19.3012  19.3869  19.5524  19.5524  19.6420  19.6420

     occupation numbers 
     1.0000   1.0000   1.0000   1.0000   0.0000   0.0000   0.0000   0.0000
     0.0000   0.0000   0.0000   0.0000   0.0000   0.0000   0.0000   0.0000
     0.0000   0.0000   0.0000   0.0000   0.0000   0.0000   0.0000   0.0000
     0.0000   0.0000   0.0000   0.0000   0.0000   0.0000   0.0000   0.0000
     0.0000   0.0000   0.0000   0.0000   0.0000   0.0000   0.0000   0.0000
     0.0000   0.0000   0.0000   0.0000   0.0000   0.0000   0.0000   0.0000
     0.0000   0.0000   0.0000   0.0000   0.0000   0.0000   0.0000   0.0000

          k = 0.1500 0.0000 0.0000 ( 10351 PWs)   bands (ev):

   -20.3891 -14.0568  -9.2484  -9.2483   0.3386   1.9074   1.9074   1.9563
     2.1513   2.9150   3.5446   3.5446   3.9979   4.4554   4.4554   4.9627
     5.0605   6.4592   6.5463   6.5463   7.0231   7.7920   7.8665   7.8665
     8.0279   8.5101   8.5101   9.7029  11.0970  11.6104  12.3596  12.3596
    12.6640  14.2856  14.2856  14.5960  14.7470  15.0037  15.0650  15.0650
    15.0769  16.3944  16.4472  16.4472  17.4222  17.4222  17.5931  17.8524
    17.9524  18.1801  18.9105  19.2218  19.2218  19.4531  19.7079  19.7079

     occupation numbers 
     1.0000   1.0000   1.0000   1.0000   0.0000   0.0000   0.0000   0.0000
     0.0000   0.0000   0.0000   0.0000   0.0000   0.0000   0.0000   0.0000
     0.0000   0.0000   0.0000   0.0000   0.0000   0.0000   0.0000   0.0000
     0.0000   0.0000   0.0000   0.0000   0.0000   0.0000   0.0000   0.0000
     0.0000   0.0000   0.0000   0.0000   0.0000   0.0000   0.0000   0.0000
     0.0000   0.0000   0.0000   0.0000   0.0000   0.0000   0.0000   0.0000
     0.0000   0.0000   0.0000   0.0000   0.0000   0.0000   0.0000   0.0000

          k = 0.1600 0.0000 0.0000 ( 10347 PWs)   bands (ev):

   -20.3496 -14.1317  -9.1816  -9.1816   0.4067   1.9778   1.9778   2.0272
     2.2191   2.9859   3.6150   3.6150   4.0657   4.2017   4.2017   5.0628
     5.1313   6.5301   6.6169   6.6169   7.0924   7.8628   7.9373   7.9373
     8.0987   8.5802   8.5802   9.7628  11.1678  11.6812  12.4303  12.4303
    12.7334  14.3560  14.3560  14.6668  14.8147  15.0746  15.1358  15.1358
    15.1477  16.0283  16.5170  16.5170  17.1025  17.1025  17.5663  17.6468
    17.8161  17.9232  18.5244  18.8814  18.8814  19.5239  19.6298  19.7787

     occupation numbers 
     1.0000   1.0000   1.0000   1.0000   0.0000   0.0000   0.0000   0.0000
     0.0000   0.0000   0.0000   0.0000   0.0000   0.0000   0.0000   0.0000
     0.0000   0.0000   0.0000   0.0000   0.0000   0.0000   0.0000   0.0000
     0.0000   0.0000   0.0000   0.0000   0.0000   0.0000   0.0000   0.0000
     0.0000   0.0000   0.0000   0.0000   0.0000   0.0000   0.0000   0.0000
     0.0000   0.0000   0.0000   0.0000   0.0000   0.0000   0.0000   0.0000
     0.0000   0.0000   0.0000   0.0000   0.0000   0.0000   0.0000   0.0000

          k = 0.1700 0.0000 0.0000 ( 10371 PWs)   bands (ev):

   -20.3077 -14.2103  -9.1106  -9.1106   0.4792   2.0527   2.0527   2.1026
     2.2912   3.0613   3.6891   3.6891   3.9438   3.9438   4.1378   5.1669
     5.2067   6.6055   6.6920   6.6920   7.1662   7.9383   8.0126   8.0126
     8.1741   8.6548   8.6548   9.8265  11.2432  11.7566  12.5056  12.5056
    12.8073  14.4309  14.4309  14.7422  14.8866  15.1500  15.2112  15.2112
    15.2231  15.6667  16.5912  16.5912  16.7732  16.7732  17.1846  17.4552
    17.7050  17.9986  18.1428  18.5354  18.5354  19.2683  19.5993  19.8540

     occupation numbers 
     1.0000   1.0000   1.0000   1.0000   0.0000   0.0000   0.0000   0.0000
     0.0000   0.0000   0.0000   0.0000   0.0000   0.0000   0.0000   0.0000
     0.0000   0.0000   0.0000   0.0000   0.0000   0.0000   0.0000   0.0000
     0.0000   0.0000   0.0000   0.0000   0.0000   0.0000   0.0000   0.0000
     0.0000   0.0000   0.0000   0.0000   0.0000   0.0000   0.0000   0.0000
     0.0000   0.0000   0.0000   0.0000   0.0000   0.0000   0.0000   0.0000
     0.0000   0.0000   0.0000   0.0000   0.0000   0.0000   0.0000   0.0000

          k = 0.1800 0.0000 0.0000 ( 10383 PWs)   bands (ev):

   -20.2633 -14.2923  -9.0353  -9.0353   0.5561   2.1322   2.1322   2.1826
     2.3677   3.1413   3.6741   3.6741   3.7754   3.7754   4.2142   5.2748
     5.2867   6.6854   6.7717   6.7717   7.2444   8.0182   8.0925   8.0925
     8.2541   8.7339   8.7339   9.8938  11.3232  11.8365  12.5855  12.5855
    12.8855  14.5103  14.5103  14.8222  14.9627  15.2300  15.2912  15.2912
    15.3031  15.3097  16.4380  16.4380  16.6701  16.6701  16.8076  17.1003
    17.7644  17.7658  18.0785  18.1866  18.1866  18.9117  19.6792  19.9095

     occupation numbers 
     1.0000   1.0000   1.0000   1.0000   0.0000   0.0000   0.0000   0.0000
     0.0000   0.0000   0.0000   0.0000   0.0000   0.0000   0.0000   0.0000
     0.0000   0.0000   0.0000   0.0000   0.0000   0.0000   0.0000   0.0000
     0.0000   0.0000   0.0000   0.0000   0.0000   0.0000   0.0000   0.0000
     0.0000   0.0000   0.0000   0.0000   0.0000   0.0000   0.0000   0.0000
     0.0000   0.0000   0.0000   0.0000   0.0000   0.0000   0.0000   0.0000
     0.0000   0.0000   0.0000   0.0000   0.0000   0.0000   0.0000   0.0000

          k = 0.1900 0.0000 0.0000 ( 10387 PWs)   bands (ev):

   -20.2164 -14.3775  -8.9557  -8.9557   0.6372   2.2161   2.2161   2.2671
     2.4485   3.2258   3.4114   3.4114   3.8559   3.8559   4.2950   5.3712
     5.3859   6.7700   6.8559   6.8559   7.3270   8.1028   8.1770   8.1770
     8.3387   8.8175   8.8175   9.9646  11.4077  11.9210  12.6699  12.6699
    12.9683  14.5943  14.5943  14.9067  14.9567  15.0437  15.3145  15.3758
    15.3758  15.3877  16.0998  16.0998  16.4351  16.7502  16.7534  16.7534
    17.3933  17.8264  17.8370  17.8370  18.1631  18.5602  19.5370  19.7639

     occupation numbers 
     1.0000   1.0000   1.0000   1.0000   0.0000   0.0000   0.0000   0.0000
     0.0000   0.0000   0.0000   0.0000   0.0000   0.0000   0.0000   0.0000
     0.0000   0.0000   0.0000   0.0000   0.0000   0.0000   0.0000   0.0000
     0.0000   0.0000   0.0000   0.0000   0.0000   0.0000   0.0000   0.0000
     0.0000   0.0000   0.0000   0.0000   0.0000   0.0000   0.0000   0.0000
     0.0000   0.0000   0.0000   0.0000   0.0000   0.0000   0.0000   0.0000
     0.0000   0.0000   0.0000   0.0000   0.0000   0.0000   0.0000   0.0000

          k = 0.2000 0.0000 0.0000 ( 10395 PWs)   bands (ev):

   -20.1672 -14.4658  -8.8719  -8.8719   0.7228   2.3044   2.3044   2.3562
     2.5336   3.1429   3.1429   3.3149   3.9442   3.9442   4.3801   5.4603
     5.4996   6.8591   6.9447   6.9447   7.4141   8.1919   8.2660   8.2660
     8.4278   8.9056   8.9056  10.0390  11.4968  12.0101  12.7589  12.7589
    13.0554  14.6097  14.6828  14.6828  14.9958  15.1277  15.4036  15.4649
    15.4649  15.4768  15.7605  15.7605  16.0672  16.4050  16.8411  16.8411
    17.0254  17.4880  17.4880  17.8903  18.2142  18.2521  19.1693  19.8530

     occupation numbers 
     1.0000   1.0000   1.0000   1.0000   0.0000   0.0000   0.0000   0.0000
     0.0000   0.0000   0.0000   0.0000   0.0000   0.0000   0.0000   0.0000
     0.0000   0.0000   0.0000   0.0000   0.0000   0.0000   0.0000   0.0000
     0.0000   0.0000   0.0000   0.0000   0.0000   0.0000   0.0000   0.0000
     0.0000   0.0000   0.0000   0.0000   0.0000   0.0000   0.0000   0.0000
     0.0000   0.0000   0.0000   0.0000   0.0000   0.0000   0.0000   0.0000
     0.0000   0.0000   0.0000   0.0000   0.0000   0.0000   0.0000   0.0000

          k = 0.2100 0.0000 0.0000 ( 10387 PWs)   bands (ev):

   -20.1156 -14.5569  -8.7838  -8.7838   0.8126   2.3968   2.3968   2.4499
     2.6230   2.8727   2.8727   3.4086   4.0374   4.0374   4.4695   5.5540
     5.6153   6.9528   7.0380   7.0380   7.5055   8.2856   8.3596   8.3596
     8.5215   8.9982   8.9982  10.1168  11.5905  12.1038  12.8524  12.8524
    13.1469  14.2672  14.7759  14.7759  15.0895  15.2162  15.4212  15.4212
    15.4973  15.5586  15.5586  15.5705  15.7039  16.0651  16.6621  16.9333
    16.9333  17.1405  17.1405  17.8682  17.9615  18.3458  18.8060  19.9466

     occupation numbers 
     1.0000   1.0000   1.0000   1.0000   0.0000   0.0000   0.0000   0.0000
     0.0000   0.0000   0.0000   0.0000   0.0000   0.0000   0.0000   0.0000
     0.0000   0.0000   0.0000   0.0000   0.0000   0.0000   0.0000   0.0000
     0.0000   0.0000   0.0000   0.0000   0.0000   0.0000   0.0000   0.0000
     0.0000   0.0000   0.0000   0.0000   0.0000   0.0000   0.0000   0.0000
     0.0000   0.0000   0.0000   0.0000   0.0000   0.0000   0.0000   0.0000
     0.0000   0.0000   0.0000   0.0000   0.0000   0.0000   0.0000   0.0000

          k = 0.2200 0.0000 0.0000 ( 10403 PWs)   bands (ev):

   -20.0616 -14.6507  -8.6914  -8.6914   0.9067   2.4881   2.4881   2.5482
     2.6065   2.6065   2.7167   3.5069   4.1352   4.1352   4.5632   5.6523
     5.7325   7.0510   7.1359   7.1359   7.6014   8.3839   8.4577   8.4577
     8.6197   9.0953   9.0953  10.1981  11.6887  12.2020  12.9505  12.9505
    13.2428  13.9299  14.8734  14.8734  15.0831  15.0831  15.1878  15.3087
    15.3451  15.5956  15.6568  15.6568  15.6688  15.7305  16.3034  16.7952
    16.7952  17.0300  17.0300  17.5354  18.0266  18.4440  18.4474  19.6853

     occupation numbers 
     1.0000   1.0000   1.0000   1.0000   0.0000   0.0000   0.0000   0.0000
     0.0000   0.0000   0.0000   0.0000   0.0000   0.0000   0.0000   0.0000
     0.0000   0.0000   0.0000   0.0000   0.0000   0.0000   0.0000   0.0000
     0.0000   0.0000   0.0000   0.0000   0.0000   0.0000   0.0000   0.0000
     0.0000   0.0000   0.0000   0.0000   0.0000   0.0000   0.0000   0.0000
     0.0000   0.0000   0.0000   0.0000   0.0000   0.0000   0.0000   0.0000
     0.0000   0.0000   0.0000   0.0000   0.0000   0.0000   0.0000   0.0000

          k = 0.2300 0.0000 0.0000 ( 10379 PWs)   bands (ev):

   -20.0052 -14.7470  -8.5948  -8.5948   1.0051   2.3213   2.3213   2.6020
     2.6020   2.6510   2.8146   3.6097   4.2376   4.2376   4.6612   5.7551
     5.8502   7.1538   7.2383   7.2383   7.7016   8.4867   8.5605   8.5605
     8.7226   9.1969   9.1969  10.2826  11.7915  12.3048  13.0532  13.0532
    13.3430  13.5980  14.7466  14.7466  14.9756  14.9756  14.9909  15.2906
    15.3926  15.4140  15.6984  15.7597  15.7597  15.7716  15.9492  16.4526
    16.4526  17.1312  17.1312  17.2056  18.0933  18.0958  18.5468  19.3644

     occupation numbers 
     1.0000   1.0000   1.0000   1.0000   0.0000   0.0000   0.0000   0.0000
     0.0000   0.0000   0.0000   0.0000   0.0000   0.0000   0.0000   0.0000
     0.0000   0.0000   0.0000   0.0000   0.0000   0.0000   0.0000   0.0000
     0.0000   0.0000   0.0000   0.0000   0.0000   0.0000   0.0000   0.0000
     0.0000   0.0000   0.0000   0.0000   0.0000   0.0000   0.0000   0.0000
     0.0000   0.0000   0.0000   0.0000   0.0000   0.0000   0.0000   0.0000
     0.0000   0.0000   0.0000   0.0000   0.0000   0.0000   0.0000   0.0000

          k = 0.2400 0.0000 0.0000 ( 10367 PWs)   bands (ev):

   -19.9465 -14.8456  -8.4940  -8.4940   1.1078   2.0493   2.0493   2.7069
     2.7069   2.7584   2.9169   3.7171   4.3446   4.3446   4.7635   5.8625
     5.9678   7.2612   7.3453   7.3453   7.8062   8.5941   8.6678   8.6678
     8.8300   9.3030   9.3030  10.3704  11.8989  12.4122  13.1604  13.1604
    13.2709  13.4481  14.4126  14.4126  14.6413  15.0773  15.0822  15.0822
    15.3980  15.5064  15.5996  15.8058  15.8671  15.8671  15.8790  16.1131
    16.1131  16.8816  17.2368  17.2368  17.7437  18.1661  18.6541  19.0412

     occupation numbers 
     1.0000   1.0000   1.0000   1.0000   0.0000   0.0000   0.0000   0.0000
     0.0000   0.0000   0.0000   0.0000   0.0000   0.0000   0.0000   0.0000
     0.0000   0.0000   0.0000   0.0000   0.0000   0.0000   0.0000   0.0000
     0.0000   0.0000   0.0000   0.0000   0.0000   0.0000   0.0000   0.0000
     0.0000   0.0000   0.0000   0.0000   0.0000   0.0000   0.0000   0.0000
     0.0000   0.0000   0.0000   0.0000   0.0000   0.0000   0.0000   0.0000
     0.0000   0.0000   0.0000   0.0000   0.0000   0.0000   0.0000   0.0000

          k = 0.2500 0.0000 0.0000 ( 10359 PWs)   bands (ev):

   -19.8856 -14.9462  -8.3890  -8.3890   1.2148   1.7758   1.7758   2.8177
     2.8177   2.8704   3.0233   3.8291   4.4561   4.4561   4.8701   5.9745
     6.0844   7.3732   7.4568   7.4568   7.9152   8.7061   8.7796   8.7796
     8.9420   9.4137   9.4137  10.4613  12.0109  12.5241  12.9501  13.2722
    13.2722  13.5569  14.0813  14.0813  14.2962  14.7598  15.1933  15.1933
    15.2546  15.5099  15.6106  15.7769  15.7769  15.9178  15.9790  15.9790
    15.9910  16.5637  17.3469  17.3469  17.3987  18.2369  18.7175  18.7175

     occupation numbers 
     1.0000   1.0000   1.0000   1.0000   0.0000   0.0000   0.0000   0.0000
     0.0000   0.0000   0.0000   0.0000   0.0000   0.0000   0.0000   0.0000
     0.0000   0.0000   0.0000   0.0000   0.0000   0.0000   0.0000   0.0000
     0.0000   0.0000   0.0000   0.0000   0.0000   0.0000   0.0000   0.0000
     0.0000   0.0000   0.0000   0.0000   0.0000   0.0000   0.0000   0.0000
     0.0000   0.0000   0.0000   0.0000   0.0000   0.0000   0.0000   0.0000
     0.0000   0.0000   0.0000   0.0000   0.0000   0.0000   0.0000   0.0000

          k = 0.2600 0.0000 0.0000 ( 10367 PWs)   bands (ev):

   -19.8223 -15.0489  -8.2797  -8.2797   1.3260   1.5023   1.5024   2.9334
     2.9334   2.9869   3.1340   3.9456   4.5722   4.5722   4.9808   6.0910
     6.1988   7.4897   7.5729   7.5729   8.0285   8.8226   8.8960   8.8960
     9.0585   9.5288   9.5288  10.5552  12.1274  12.6351  12.6406  13.3885
    13.3885  13.6702  13.7530  13.7530  13.9557  14.4483  14.9141  15.3089
    15.3089  15.4443  15.4443  15.6265  15.7184  16.0343  16.0956  16.0956
    16.1075  16.2525  17.0583  17.4615  17.4615  18.3075  18.3947  18.3947

     occupation numbers 
     1.0000   1.0000   1.0000   1.0000   0.0000   0.0000   0.0000   0.0000
     0.0000   0.0000   0.0000   0.0000   0.0000   0.0000   0.0000   0.0000
     0.0000   0.0000   0.0000   0.0000   0.0000   0.0000   0.0000   0.0000
     0.0000   0.0000   0.0000   0.0000   0.0000   0.0000   0.0000   0.0000
     0.0000   0.0000   0.0000   0.0000   0.0000   0.0000   0.0000   0.0000
     0.0000   0.0000   0.0000   0.0000   0.0000   0.0000   0.0000   0.0000
     0.0000   0.0000   0.0000   0.0000   0.0000   0.0000   0.0000   0.0000

          k = 0.2700 0.0000 0.0000 ( 10351 PWs)   bands (ev):

   -19.7568 -15.1532  -8.1662  -8.1662   1.2295   1.2295   1.4414   3.0537
     3.0537   3.1080   3.2489   4.0667   4.6928   4.6928   5.0958   6.2121
     6.3099   7.6108   7.6935   7.6935   8.1461   8.9437   9.0170   9.0170
     9.1796   9.6484   9.6484  10.6519  12.2485  12.3262  12.7617  13.4279
    13.4279  13.5094  13.5094  13.6198  13.7876  14.1433  14.5782  15.1154
    15.1154  15.4291  15.4291  15.7475  15.8281  15.9499  16.1554  16.2167
    16.2167  16.2286  16.7225  17.5805  17.5805  18.0736  18.0736  18.1208

     occupation numbers 
     1.0000   1.0000   1.0000   1.0000   0.0000   0.0000   0.0000   0.0000
     0.0000   0.0000   0.0000   0.0000   0.0000   0.0000   0.0000   0.0000
     0.0000   0.0000   0.0000   0.0000   0.0000   0.0000   0.0000   0.0000
     0.0000   0.0000   0.0000   0.0000   0.0000   0.0000   0.0000   0.0000
     0.0000   0.0000   0.0000   0.0000   0.0000   0.0000   0.0000   0.0000
     0.0000   0.0000   0.0000   0.0000   0.0000   0.0000   0.0000   0.0000
     0.0000   0.0000   0.0000   0.0000   0.0000   0.0000   0.0000   0.0000

          k = 0.2800 0.0000 0.0000 ( 10351 PWs)   bands (ev):

   -19.6892 -15.2592  -8.0485  -8.0485   0.9577   0.9577   1.5610   3.1785
     3.1785   3.2337   3.3681   4.1924   4.8180   4.8180   5.2150   6.3378
     6.4166   7.7365   7.8186   7.8186   8.2680   9.0694   9.1425   9.1425
     9.3053   9.7725   9.7725  10.7513  12.0237  12.3741  12.8873  13.1064
    13.1064  13.2885  13.6349  13.6349  13.8423  13.9117  14.2469  14.7904
    14.7904  15.5538  15.5538  15.6487  15.8732  15.9469  16.2811  16.3423
    16.3423  16.3543  16.3913  17.7036  17.7036  17.7551  17.7551  17.7896

     occupation numbers 
     1.0000   1.0000   1.0000   1.0000   0.0000   0.0000   0.0000   0.0000
     0.0000   0.0000   0.0000   0.0000   0.0000   0.0000   0.0000   0.0000
     0.0000   0.0000   0.0000   0.0000   0.0000   0.0000   0.0000   0.0000
     0.0000   0.0000   0.0000   0.0000   0.0000   0.0000   0.0000   0.0000
     0.0000   0.0000   0.0000   0.0000   0.0000   0.0000   0.0000   0.0000
     0.0000   0.0000   0.0000   0.0000   0.0000   0.0000   0.0000   0.0000
     0.0000   0.0000   0.0000   0.0000   0.0000   0.0000   0.0000   0.0000

          k = 0.2900 0.0000 0.0000 ( 10347 PWs)   bands (ev):

   -19.6193 -15.3666  -7.9266  -7.9266   0.6871   0.6871   1.6847   3.3079
     3.3079   3.3640   3.4913   4.3227   4.9477   4.9477   5.3384   6.4680
     6.5172   7.8667   7.9483   7.9483   8.3941   9.1997   9.2726   9.2726
     9.4356   9.9011   9.9011  10.8530  11.7280  12.5043  12.7885  12.7885
    12.9617  13.0176  13.5522  13.7649  13.7649  13.9201  14.0361  14.4694
    14.4694  15.3597  15.6830  15.6830  16.0034  16.0645  16.0646  16.4114
    16.4726  16.4726  16.4846  17.4387  17.4387  17.4629  17.8319  17.8319

     occupation numbers 
     1.0000   1.0000   1.0000   1.0000   0.0000   0.0000   0.0000   0.0000
     0.0000   0.0000   0.0000   0.0000   0.0000   0.0000   0.0000   0.0000
     0.0000   0.0000   0.0000   0.0000   0.0000   0.0000   0.0000   0.0000
     0.0000   0.0000   0.0000   0.0000   0.0000   0.0000   0.0000   0.0000
     0.0000   0.0000   0.0000   0.0000   0.0000   0.0000   0.0000   0.0000
     0.0000   0.0000   0.0000   0.0000   0.0000   0.0000   0.0000   0.0000
     0.0000   0.0000   0.0000   0.0000   0.0000   0.0000   0.0000   0.0000

          k = 0.3000 0.0000 0.0000 ( 10355 PWs)   bands (ev):

   -19.5472 -15.4752  -7.8006  -7.8006   0.4180   0.4180   1.8126   3.4419
     3.4419   3.4988   3.6187   4.4575   5.0820   5.0820   5.4660   6.6028
     6.6102   8.0015   8.0826   8.0826   8.5244   9.3345   9.4073   9.4073
     9.5704  10.0342  10.0342  10.9563  11.4400  12.4744  12.4744  12.6391
    12.6395  13.1523  13.2678  13.5979  13.8994  13.8994  14.1524  14.1524
    14.1661  15.0786  15.7424  15.8168  15.8168  16.1382  16.1857  16.5462
    16.6074  16.6074  16.6194  17.1259  17.1259  17.1408  17.8094  17.9642

     occupation numbers 
     1.0000   1.0000   1.0000   1.0000   0.0000   0.0000   0.0000   0.0000
     0.0000   0.0000   0.0000   0.0000   0.0000   0.0000   0.0000   0.0000
     0.0000   0.0000   0.0000   0.0000   0.0000   0.0000   0.0000   0.0000
     0.0000   0.0000   0.0000   0.0000   0.0000   0.0000   0.0000   0.0000
     0.0000   0.0000   0.0000   0.0000   0.0000   0.0000   0.0000   0.0000
     0.0000   0.0000   0.0000   0.0000   0.0000   0.0000   0.0000   0.0000
     0.0000   0.0000   0.0000   0.0000   0.0000   0.0000   0.0000   0.0000

          k = 0.3100 0.0000 0.0000 ( 10375 PWs)   bands (ev):

   -19.4731 -15.5850  -7.6704  -7.6704   0.1506   0.1506   1.9446   3.5804
     3.5804   3.6382   3.7502   4.5969   5.2208   5.2208   5.5976   6.6937
     6.7422   8.1409   8.2214   8.2214   8.6589   9.4739   9.5465   9.5465
     9.7098  10.1717  10.1717  11.0522  11.1687  12.1641  12.1641  12.3219
    12.7785  12.9909  13.2803  13.2917  13.8394  13.8394  14.0386  14.0386
    14.3001  14.8066  15.4248  15.9550  15.9550  16.2776  16.3095  16.6856
    16.7468  16.7468  16.7588  16.8166  16.8166  16.8232  17.5015  18.1009

     occupation numbers 
     1.0000   1.0000   1.0000   1.0000   0.0000   0.0000   0.0000   0.0000
     0.0000   0.0000   0.0000   0.0000   0.0000   0.0000   0.0000   0.0000
     0.0000   0.0000   0.0000   0.0000   0.0000   0.0000   0.0000   0.0000
     0.0000   0.0000   0.0000   0.0000   0.0000   0.0000   0.0000   0.0000
     0.0000   0.0000   0.0000   0.0000   0.0000   0.0000   0.0000   0.0000
     0.0000   0.0000   0.0000   0.0000   0.0000   0.0000   0.0000   0.0000
     0.0000   0.0000   0.0000   0.0000   0.0000   0.0000   0.0000   0.0000

          k = 0.3200 0.0000 0.0000 ( 10355 PWs)   bands (ev):

   -19.3968 -15.6957  -7.5360  -7.5360  -0.1148  -0.1148   2.0807   3.7235
     3.7235   3.7822   3.8858   4.7408   5.3642   5.3642   5.7333   6.7660
     6.8862   8.2849   8.3647   8.3647   8.7975   9.6178   9.6903   9.6903
     9.8537  10.3138  10.3138  10.8759  11.1790  11.8578  11.8578  12.0088
    12.7219  12.9222  12.9675  13.4356  13.5308  13.5308  14.1823  14.1823
    14.4359  14.5468  15.1118  16.0977  16.0977  16.4212  16.4354  16.5105
    16.5109  16.5109  16.8295  16.8908  16.8908  16.9028  17.1989  17.8443

     occupation numbers 
     1.0000   1.0000   1.0000   1.0000   0.0000   0.0000   0.0000   0.0000
     0.0000   0.0000   0.0000   0.0000   0.0000   0.0000   0.0000   0.0000
     0.0000   0.0000   0.0000   0.0000   0.0000   0.0000   0.0000   0.0000
     0.0000   0.0000   0.0000   0.0000   0.0000   0.0000   0.0000   0.0000
     0.0000   0.0000   0.0000   0.0000   0.0000   0.0000   0.0000   0.0000
     0.0000   0.0000   0.0000   0.0000   0.0000   0.0000   0.0000   0.0000
     0.0000   0.0000   0.0000   0.0000   0.0000   0.0000   0.0000   0.0000

          k = 0.3300 0.0000 0.0000 ( 10339 PWs)   bands (ev):

   -19.3186 -15.8073  -7.3975  -7.3975  -0.3780  -0.3780   2.2207   3.8711
     3.8711   3.9307   4.0255   4.8894   5.5121   5.5121   5.8730   6.8247
     7.0347   8.4334   8.5125   8.5125   8.9401   9.7664   9.8386   9.8386
    10.0023  10.4603  10.4603  10.6119  11.2863  11.5556  11.5556  11.7003
    12.4611  12.6587  13.0710  13.2263  13.2263  13.5840  14.2907  14.3305
    14.3305  14.5828  14.8034  16.2017  16.2079  16.2079  16.2458  16.2458
    16.5625  16.5702  16.9019  16.9781  17.0393  17.0393  17.0513  17.5358

     occupation numbers 
     1.0000   1.0000   1.0000   1.0000   0.0000   0.0000   0.0000   0.0000
     0.0000   0.0000   0.0000   0.0000   0.0000   0.0000   0.0000   0.0000
     0.0000   0.0000   0.0000   0.0000   0.0000   0.0000   0.0000   0.0000
     0.0000   0.0000   0.0000   0.0000   0.0000   0.0000   0.0000   0.0000
     0.0000   0.0000   0.0000   0.0000   0.0000   0.0000   0.0000   0.0000
     0.0000   0.0000   0.0000   0.0000   0.0000   0.0000   0.0000   0.0000
     0.0000   0.0000   0.0000   0.0000   0.0000   0.0000   0.0000   0.0000

          k = 0.3400 0.0000 0.0000 ( 10359 PWs)   bands (ev):

   -19.2383 -15.9195  -7.2549  -7.2549  -0.6390  -0.6389   2.3648   4.0232
     4.0232   4.0838   4.1691   5.0425   5.6646   5.6646   6.0167   6.8679
     7.1878   8.5865   8.6649   8.6649   9.0866   9.9195   9.9915   9.9915
    10.1554  10.3543  10.6112  10.6112  11.2575  11.2575  11.3960  11.3964
    12.2093  12.3548  12.9261  12.9261  13.2240  13.7370  14.0518  14.4833
    14.4833  14.4995  14.7282  15.8979  15.9107  15.9107  16.3968  16.3968
    16.6044  16.6965  16.7232  17.1312  17.1923  17.1923  17.2044  17.2319

     occupation numbers 
     1.0000   1.0000   1.0000   1.0000   0.0000   0.0000   0.0000   0.0000
     0.0000   0.0000   0.0000   0.0000   0.0000   0.0000   0.0000   0.0000
     0.0000   0.0000   0.0000   0.0000   0.0000   0.0000   0.0000   0.0000
     0.0000   0.0000   0.0000   0.0000   0.0000   0.0000   0.0000   0.0000
     0.0000   0.0000   0.0000   0.0000   0.0000   0.0000   0.0000   0.0000
     0.0000   0.0000   0.0000   0.0000   0.0000   0.0000   0.0000   0.0000
     0.0000   0.0000   0.0000   0.0000   0.0000   0.0000   0.0000   0.0000

          k = 0.3500 0.0000 0.0000 ( 10323 PWs)   bands (ev):

   -19.1560 -16.0321  -7.1082  -7.1082  -0.8974  -0.8974   2.5127   4.1798
     4.1798   4.2415   4.3167   5.2002   5.8216   5.8216   6.1641   6.8934
     7.3454   8.7441   8.8218   8.8218   9.2369  10.0771  10.1046  10.1490
    10.1490  10.3131  10.7662  10.7662  10.9639  10.9639  11.0970  11.5047
    11.9680  12.0555  12.6302  12.6302  13.3817  13.8256  13.8945  14.2004
    14.6406  14.6406  14.8779  15.5986  15.6166  15.6166  16.3215  16.5529
    16.5529  16.8217  16.8808  16.9325  16.9823  16.9823  17.1686  17.2888

     occupation numbers 
     1.0000   1.0000   1.0000   1.0000   0.0000   0.0000   0.0000   0.0000
     0.0000   0.0000   0.0000   0.0000   0.0000   0.0000   0.0000   0.0000
     0.0000   0.0000   0.0000   0.0000   0.0000   0.0000   0.0000   0.0000
     0.0000   0.0000   0.0000   0.0000   0.0000   0.0000   0.0000   0.0000
     0.0000   0.0000   0.0000   0.0000   0.0000   0.0000   0.0000   0.0000
     0.0000   0.0000   0.0000   0.0000   0.0000   0.0000   0.0000   0.0000
     0.0000   0.0000   0.0000   0.0000   0.0000   0.0000   0.0000   0.0000

          k = 0.3600 0.0000 0.0000 ( 10335 PWs)   bands (ev):

   -19.0718 -16.1452  -6.9574  -6.9574  -1.1532  -1.1532   2.6645   4.3410
     4.3410   4.4037   4.4681   5.3624   5.9831   5.9831   6.3151   6.8996
     7.5077   8.9063   8.9833   8.9833   9.3905   9.8635  10.2394  10.3110
    10.3110  10.4753  10.6730  10.6730  10.8022  10.9272  10.9272  11.5955
    11.7533  11.7607  12.3386  12.3386  13.5439  13.6139  13.9049  14.0574
    14.8025  14.8025  15.0311  15.3039  15.3266  15.3266  16.0414  16.6377
    16.6895  16.6895  16.7137  16.7137  16.8739  16.9488  17.0431  17.1747

     occupation numbers 
     1.0000   1.0000   1.0000   1.0000   0.0000   0.0000   0.0000   0.0000
     0.0000   0.0000   0.0000   0.0000   0.0000   0.0000   0.0000   0.0000
     0.0000   0.0000   0.0000   0.0000   0.0000   0.0000   0.0000   0.0000
     0.0000   0.0000   0.0000   0.0000   0.0000   0.0000   0.0000   0.0000
     0.0000   0.0000   0.0000   0.0000   0.0000   0.0000   0.0000   0.0000
     0.0000   0.0000   0.0000   0.0000   0.0000   0.0000   0.0000   0.0000
     0.0000   0.0000   0.0000   0.0000   0.0000   0.0000   0.0000   0.0000

          k = 0.3700 0.0000 0.0000 ( 10327 PWs)   bands (ev):

   -18.9858 -16.2586  -6.8026  -6.8026  -1.4062  -1.4062   2.8200   4.5067
     4.5067   4.5706   4.6234   5.5292   6.1492   6.1492   6.4690   6.8854
     7.6745   9.0731   9.1493   9.1493   9.5423   9.6357  10.3876  10.3876
    10.4062  10.4777  10.4777  10.5120  10.6421  11.0913  11.0913  11.4705
    11.4779  11.7546  12.0514  12.0514  13.4180  13.6151  13.7106  14.2238
    14.9690  14.9690  15.0138  15.0408  15.0408  15.1874  15.7675  16.3475
    16.4013  16.4013  16.5837  16.8765  16.8765  16.8979  16.8979  17.0732

     occupation numbers 
     1.0000   1.0000   1.0000   1.0000   0.0000   0.0000   0.0000   0.0000
     0.0000   0.0000   0.0000   0.0000   0.0000   0.0000   0.0000   0.0000
     0.0000   0.0000   0.0000   0.0000   0.0000   0.0000   0.0000   0.0000
     0.0000   0.0000   0.0000   0.0000   0.0000   0.0000   0.0000   0.0000
     0.0000   0.0000   0.0000   0.0000   0.0000   0.0000   0.0000   0.0000
     0.0000   0.0000   0.0000   0.0000   0.0000   0.0000   0.0000   0.0000
     0.0000   0.0000   0.0000   0.0000   0.0000   0.0000   0.0000   0.0000

          k = 0.3800 0.0000 0.0000 ( 10315 PWs)   bands (ev):

   -18.8979 -16.3720  -6.6438  -6.6438  -1.6564  -1.6564   2.9792   4.6769
     4.6769   4.7419   4.7825   5.7006   6.3198   6.3198   6.6227   6.8530
     7.8458   9.2445   9.3198   9.3198   9.3999   9.7131  10.1065  10.1065
    10.2264  10.5776  10.6487  10.6487  10.8135  11.1849  11.2600  11.2600
    11.2640  11.7686  11.7686  11.8584  13.2394  13.3296  13.8820  14.3951
    14.7282  14.7592  14.7592  15.1400  15.1400  15.3446  15.5024  16.0619
    16.1174  16.1174  16.2980  16.6199  16.6199  17.0487  17.0487  17.1928

     occupation numbers 
     1.0000   1.0000   1.0000   1.0000   0.0000   0.0000   0.0000   0.0000
     0.0000   0.0000   0.0000   0.0000   0.0000   0.0000   0.0000   0.0000
     0.0000   0.0000   0.0000   0.0000   0.0000   0.0000   0.0000   0.0000
     0.0000   0.0000   0.0000   0.0000   0.0000   0.0000   0.0000   0.0000
     0.0000   0.0000   0.0000   0.0000   0.0000   0.0000   0.0000   0.0000
     0.0000   0.0000   0.0000   0.0000   0.0000   0.0000   0.0000   0.0000
     0.0000   0.0000   0.0000   0.0000   0.0000   0.0000   0.0000   0.0000

          k = 0.3900 0.0000 0.0000 ( 10299 PWs)   bands (ev):

   -18.8082 -16.4855  -6.4809  -6.4809  -1.9035  -1.9035   3.1420   4.8516
     4.8516   4.9179   4.9453   5.8765   6.4950   6.4950   6.7352   6.8429
     8.0218   9.1814   9.4204   9.4947   9.4947   9.8296   9.8296   9.8765
     9.9453  10.7535  10.8244  10.8244  10.9038  10.9895  11.0503  11.4322
    11.4322  11.4912  11.4912  11.9663  13.0486  13.0792  14.0578  14.4473
    14.4818  14.4818  14.5709  15.2365  15.3155  15.3155  15.5122  15.7808
    15.8378  15.8378  16.0169  16.3485  16.3485  17.2228  17.2228  17.3047

     occupation numbers 
     1.0000   1.0000   1.0000   1.0000   0.0000   0.0000   0.0000   0.0000
     0.0000   0.0000   0.0000   0.0000   0.0000   0.0000   0.0000   0.0000
     0.0000   0.0000   0.0000   0.0000   0.0000   0.0000   0.0000   0.0000
     0.0000   0.0000   0.0000   0.0000   0.0000   0.0000   0.0000   0.0000
     0.0000   0.0000   0.0000   0.0000   0.0000   0.0000   0.0000   0.0000
     0.0000   0.0000   0.0000   0.0000   0.0000   0.0000   0.0000   0.0000
     0.0000   0.0000   0.0000   0.0000   0.0000   0.0000   0.0000   0.0000

          k = 0.4000 0.0000 0.0000 ( 10291 PWs)   bands (ev):

   -18.7169 -16.5988  -6.3141  -6.3141  -2.1475  -2.1475   3.3083   5.0308
     5.0308   5.0984   5.1116   6.0571   6.6746   6.6746   6.6862   6.9761
     8.2023   8.9678   9.5561   9.5561   9.6009   9.6688   9.6750   9.6750
    10.0434  10.6274  10.8405  10.9341  11.0046  11.0046  11.1700  11.2159
    11.2159  11.6113  11.6113  12.0721  12.7721  12.9382  14.1696  14.2086
    14.2087  14.2395  14.7514  14.9850  15.4954  15.4954  15.5044  15.5628
    15.5628  15.6754  15.7404  16.0809  16.0809  17.4014  17.4014  17.4058

     occupation numbers 
     1.0000   1.0000   1.0000   1.0000   0.0000   0.0000   0.0000   0.0000
     0.0000   0.0000   0.0000   0.0000   0.0000   0.0000   0.0000   0.0000
     0.0000   0.0000   0.0000   0.0000   0.0000   0.0000   0.0000   0.0000
     0.0000   0.0000   0.0000   0.0000   0.0000   0.0000   0.0000   0.0000
     0.0000   0.0000   0.0000   0.0000   0.0000   0.0000   0.0000   0.0000
     0.0000   0.0000   0.0000   0.0000   0.0000   0.0000   0.0000   0.0000
     0.0000   0.0000   0.0000   0.0000   0.0000   0.0000   0.0000   0.0000

          k = 0.4100 0.0000 0.0000 ( 10279 PWs)   bands (ev):

   -18.6238 -16.7119  -6.1435  -6.1435  -2.3882  -2.3882   3.4779   5.2146
     5.2146   5.2813   5.2835   6.2422   6.5878   6.8589   6.8589   7.1420
     8.3873   8.7586   9.2882   9.2882   9.3969   9.7859   9.8587   9.8587
    10.2121  10.3555  10.6350  10.9462  10.9462  11.1192  11.1895  11.1895
    11.3551  11.7933  11.7933  12.1723  12.5002  12.8176  13.8986  13.9399
    13.9399  14.4236  14.7413  14.9363  15.2325  15.2918  15.2918  15.4685
    15.6802  15.6802  15.8174  15.8174  15.8408  17.4925  17.5844  17.5844

     occupation numbers 
     1.0000   1.0000   1.0000   1.0000   0.0000   0.0000   0.0000   0.0000
     0.0000   0.0000   0.0000   0.0000   0.0000   0.0000   0.0000   0.0000
     0.0000   0.0000   0.0000   0.0000   0.0000   0.0000   0.0000   0.0000
     0.0000   0.0000   0.0000   0.0000   0.0000   0.0000   0.0000   0.0000
     0.0000   0.0000   0.0000   0.0000   0.0000   0.0000   0.0000   0.0000
     0.0000   0.0000   0.0000   0.0000   0.0000   0.0000   0.0000   0.0000
     0.0000   0.0000   0.0000   0.0000   0.0000   0.0000   0.0000   0.0000

          k = 0.4200 0.0000 0.0000 ( 10287 PWs)   bands (ev):

   -18.5293 -16.8246  -5.9690  -5.9690  -2.6255  -2.6255   3.6506   5.4028
     5.4028   5.4543   5.4732   6.4318   6.4681   7.0476   7.0476   7.3143
     8.5528   8.5769   9.0243   9.0243   9.1295   9.9752  10.0472  10.0472
    10.0885  10.3651  10.4499  10.6811  10.6811  11.3088  11.3788  11.3788
    11.5448  11.9799  11.9799  12.2329  12.2612  12.7205  13.6314  13.6754
    13.6754  14.5073  14.6132  14.9649  15.0256  15.0256  15.1262  15.2011
    15.5576  15.5576  15.8695  15.8695  16.0067  17.5604  17.7719  17.7719

     occupation numbers 
     1.0000   1.0000   1.0000   1.0000   0.0000   0.0000   0.0000   0.0000
     0.0000   0.0000   0.0000   0.0000   0.0000   0.0000   0.0000   0.0000
     0.0000   0.0000   0.0000   0.0000   0.0000   0.0000   0.0000   0.0000
     0.0000   0.0000   0.0000   0.0000   0.0000   0.0000   0.0000   0.0000
     0.0000   0.0000   0.0000   0.0000   0.0000   0.0000   0.0000   0.0000
     0.0000   0.0000   0.0000   0.0000   0.0000   0.0000   0.0000   0.0000
     0.0000   0.0000   0.0000   0.0000   0.0000   0.0000   0.0000   0.0000

          k = 0.4300 0.0000 0.0000 ( 10271 PWs)   bands (ev):

   -18.4332 -16.9367  -5.7908  -5.7908  -2.8593  -2.8593   3.8263   5.5956
     5.5956   5.6301   5.6674   6.3320   6.6261   7.2408   7.2408   7.4907
     8.3494   8.7647   8.7647   8.7709   8.8670   9.8251  10.1700  10.2193
    10.2402  10.2402  10.4205  10.4205  10.5668  11.5030  11.5727  11.5727
    11.7390  11.9702  12.1708  12.1708  12.3251  12.6568  13.3687  13.4153
    13.4153  14.2847  14.7022  14.7638  14.7638  14.8074  14.9383  15.3021
    15.3021  15.3202  16.0632  16.0632  16.1714  17.6041  17.9639  17.9639

     occupation numbers 
     1.0000   1.0000   1.0000   1.0000   0.0000   0.0000   0.0000   0.0000
     0.0000   0.0000   0.0000   0.0000   0.0000   0.0000   0.0000   0.0000
     0.0000   0.0000   0.0000   0.0000   0.0000   0.0000   0.0000   0.0000
     0.0000   0.0000   0.0000   0.0000   0.0000   0.0000   0.0000   0.0000
     0.0000   0.0000   0.0000   0.0000   0.0000   0.0000   0.0000   0.0000
     0.0000   0.0000   0.0000   0.0000   0.0000   0.0000   0.0000   0.0000
     0.0000   0.0000   0.0000   0.0000   0.0000   0.0000   0.0000   0.0000

          k = 0.4400 0.0000 0.0000 ( 10251 PWs)   bands (ev):

   -18.3358 -17.0481  -5.6090  -5.6090  -3.0893  -3.0893   4.0046   5.7928
     5.7928   5.8073   5.8662   6.1839   6.8249   7.4386   7.4386   7.6701
     8.1483   8.5095   8.5095   8.6084   8.9701   9.5670  10.0190  10.1640
    10.1640  10.3687  10.4380  10.4380  10.7401  11.7006  11.7133  11.7711
    11.7711  11.9379  12.3386  12.3662  12.3662  12.6473  13.1105  13.1597
    13.1597  14.0754  14.4440  14.5065  14.5065  14.6801  15.0061  15.0507
    15.0507  15.5189  16.2615  16.2615  16.3329  17.6143  17.7476  17.9856

     occupation numbers 
     1.0000   1.0000   1.0000   1.0000   0.0000   0.0000   0.0000   0.0000
     0.0000   0.0000   0.0000   0.0000   0.0000   0.0000   0.0000   0.0000
     0.0000   0.0000   0.0000   0.0000   0.0000   0.0000   0.0000   0.0000
     0.0000   0.0000   0.0000   0.0000   0.0000   0.0000   0.0000   0.0000
     0.0000   0.0000   0.0000   0.0000   0.0000   0.0000   0.0000   0.0000
     0.0000   0.0000   0.0000   0.0000   0.0000   0.0000   0.0000   0.0000
     0.0000   0.0000   0.0000   0.0000   0.0000   0.0000   0.0000   0.0000

          k = 0.4500 0.0000 0.0000 ( 10271 PWs)   bands (ev):

   -18.2372 -17.1587  -5.4240  -5.4240  -3.3152  -3.3152   4.1855   5.9593
     5.9946   5.9946   6.0530   6.0696   7.0282   7.6409   7.6409   7.8444
     7.9566   8.2587   8.2587   8.3548   9.1734   9.3134   9.8178   9.9123
     9.9123  10.5720  10.6401  10.6401  10.9149  11.4583  11.9053  11.9741
    11.9741  12.1412  12.2973  12.5659  12.5659  12.6913  12.8569  12.9085
    12.9085  13.8817  14.1904  14.2537  14.2537  14.4264  14.8035  14.8036
    15.2094  15.7222  16.4643  16.4643  16.4882  17.4940  17.5824  17.9423

     occupation numbers 
     1.0000   1.0000   1.0000   1.0000   0.0000   0.0000   0.0000   0.0000
     0.0000   0.0000   0.0000   0.0000   0.0000   0.0000   0.0000   0.0000
     0.0000   0.0000   0.0000   0.0000   0.0000   0.0000   0.0000   0.0000
     0.0000   0.0000   0.0000   0.0000   0.0000   0.0000   0.0000   0.0000
     0.0000   0.0000   0.0000   0.0000   0.0000   0.0000   0.0000   0.0000
     0.0000   0.0000   0.0000   0.0000   0.0000   0.0000   0.0000   0.0000
     0.0000   0.0000   0.0000   0.0000   0.0000   0.0000   0.0000   0.0000

          k = 0.4600 0.0000 0.0000 ( 10278 PWs)   bands (ev):

   -18.1377 -17.2680  -5.2361  -5.2361  -3.5366  -3.5366   4.3683   5.8404
     6.1875   6.2008   6.2008   6.2776   7.2362   7.7404   7.8473   7.8473
     8.0127   8.0127   8.0470   8.1057   9.0643   9.3813   9.6166   9.6649
     9.6649  10.7799  10.8467  10.8467  11.0886  11.2093  12.1132  12.1817
    12.1817  12.2251  12.3492  12.6079  12.6608  12.6608  12.7591  12.7709
    12.7709  13.7064  13.9413  14.0054  14.0054  14.1774  14.5606  14.5606
    15.4173  15.9300  16.6332  16.6716  16.6716  17.2450  17.5192  17.7576

     occupation numbers 
     1.0000   1.0000   1.0000   1.0000   0.0000   0.0000   0.0000   0.0000
     0.0000   0.0000   0.0000   0.0000   0.0000   0.0000   0.0000   0.0000
     0.0000   0.0000   0.0000   0.0000   0.0000   0.0000   0.0000   0.0000
     0.0000   0.0000   0.0000   0.0000   0.0000   0.0000   0.0000   0.0000
     0.0000   0.0000   0.0000   0.0000   0.0000   0.0000   0.0000   0.0000
     0.0000   0.0000   0.0000   0.0000   0.0000   0.0000   0.0000   0.0000
     0.0000   0.0000   0.0000   0.0000   0.0000   0.0000   0.0000   0.0000

          k = 0.4700 0.0000 0.0000 ( 10254 PWs)   bands (ev):

   -18.0379 -17.3754  -5.0465  -5.0465  -3.7523  -3.7523   4.5528   5.6672
     6.3725   6.4115   6.4115   6.4901   7.4487   7.5432   7.7699   7.7699
     7.8612   8.0595   8.0595   8.2342   8.8198   9.4159   9.4221   9.4221
     9.5937  10.9649  10.9924  11.0579  11.0579  11.2589  12.1352  12.3257
    12.3634  12.3937  12.3937  12.4189  12.4189  12.5617  12.8330  12.9789
    12.9789  13.5525  13.6968  13.7616  13.7616  13.9328  14.3218  14.3218
    15.6297  16.1424  16.7628  16.8835  16.8835  17.0006  17.4471  17.5132

     occupation numbers 
     1.0000   1.0000   1.0000   1.0000   0.0000   0.0000   0.0000   0.0000
     0.0000   0.0000   0.0000   0.0000   0.0000   0.0000   0.0000   0.0000
     0.0000   0.0000   0.0000   0.0000   0.0000   0.0000   0.0000   0.0000
     0.0000   0.0000   0.0000   0.0000   0.0000   0.0000   0.0000   0.0000
     0.0000   0.0000   0.0000   0.0000   0.0000   0.0000   0.0000   0.0000
     0.0000   0.0000   0.0000   0.0000   0.0000   0.0000   0.0000   0.0000
     0.0000   0.0000   0.0000   0.0000   0.0000   0.0000   0.0000   0.0000

          k = 0.4800 0.0000 0.0000 ( 10238 PWs)   bands (ev):

   -17.9393 -17.4795  -4.8580  -4.8580  -3.9594  -3.9594   4.7380   5.4878
     6.5617   6.6267   6.6267   6.7072   7.3455   7.5326   7.5326   7.6213
     7.6657   8.2752   8.2752   8.4252   8.5799   9.1837   9.1837   9.2162
[...]
     0.0000   0.0000   0.0000   0.0000   0.0000   0.0000   0.0000   0.0000

          k = 0.8500 0.0000 0.0000 ( 10351 PWs)   bands (ev):

   -20.3891 -14.0568  -9.2484  -9.2483   0.3386   1.9074   1.9074   1.9563
     2.1513   2.9150   3.5446   3.5446   3.9979   4.4554   4.4554   4.9627
     5.0605   6.4592   6.5463   6.5463   7.0231   7.7920   7.8665   7.8665
     8.0279   8.5101   8.5101   9.7029  11.0970  11.6104  12.3596  12.3596
    12.6640  14.2856  14.2856  14.5960  14.7470  15.0037  15.0650  15.0650
    15.0769  16.3944  16.4472  16.4472  17.4222  17.4222  17.5931  17.8524
    17.9524  18.1801  18.9105  19.2218  19.2218  19.4531  19.7079  19.7079

     occupation numbers 
     1.0000   1.0000   1.0000   1.0000   0.0000   0.0000   0.0000   0.0000
     0.0000   0.0000   0.0000   0.0000   0.0000   0.0000   0.0000   0.0000
     0.0000   0.0000   0.0000   0.0000   0.0000   0.0000   0.0000   0.0000
     0.0000   0.0000   0.0000   0.0000   0.0000   0.0000   0.0000   0.0000
     0.0000   0.0000   0.0000   0.0000   0.0000   0.0000   0.0000   0.0000
     0.0000   0.0000   0.0000   0.0000   0.0000   0.0000   0.0000   0.0000
     0.0000   0.0000   0.0000   0.0000   0.0000   0.0000   0.0000   0.0000

          k = 0.8600 0.0000 0.0000 ( 10343 PWs)   bands (ev):

   -20.4261 -13.9856  -9.3108  -9.3108   0.2748   1.8415   1.8415   1.8900
     2.0879   2.8488   3.4787   3.4787   3.9345   4.7031   4.7031   4.8672
     4.9942   6.3930   6.4803   6.4803   6.9582   7.7257   7.8003   7.8003
     7.9616   8.4446   8.4446   9.6466  11.0307  11.5441  12.2934  12.2934
    12.5991  14.2197  14.2197  14.5297  14.6837  14.9375  14.9987  14.9987
    15.0106  16.3818  16.3818  16.7649  17.5419  17.7267  17.7267  17.7861
    18.3432  18.5489  19.3012  19.3869  19.5524  19.5524  19.6420  19.6420

     occupation numbers 
     1.0000   1.0000   1.0000   1.0000   0.0000   0.0000   0.0000   0.0000
     0.0000   0.0000   0.0000   0.0000   0.0000   0.0000   0.0000   0.0000
     0.0000   0.0000   0.0000   0.0000   0.0000   0.0000   0.0000   0.0000
     0.0000   0.0000   0.0000   0.0000   0.0000   0.0000   0.0000   0.0000
     0.0000   0.0000   0.0000   0.0000   0.0000   0.0000   0.0000   0.0000
     0.0000   0.0000   0.0000   0.0000   0.0000   0.0000   0.0000   0.0000
     0.0000   0.0000   0.0000   0.0000   0.0000   0.0000   0.0000   0.0000

          k = 0.8700 0.0000 0.0000 ( 10343 PWs)   bands (ev):

   -20.4607 -13.9184  -9.3690  -9.3690   0.2154   1.7801   1.7801   1.8283
     2.0288   2.7871   3.4173   3.4173   3.8754   4.7766   4.9325   4.9436
     4.9436   6.3313   6.4188   6.4188   6.8978   7.6640   7.7387   7.7387
     7.8999   8.3835   8.3835   9.5941  10.9690  11.4824  12.2318  12.2318
    12.5386  14.1584  14.1584  14.4680  14.6246  14.8758  14.9370  14.9370
    14.9489  16.3210  16.3210  17.1394  17.4939  17.7244  18.0081  18.0081
    18.7385  18.9220  19.3252  19.5801  19.5801  19.6965  19.7662  19.8692

     occupation numbers 
     1.0000   1.0000   1.0000   1.0000   0.0000   0.0000   0.0000   0.0000
     0.0000   0.0000   0.0000   0.0000   0.0000   0.0000   0.0000   0.0000
     0.0000   0.0000   0.0000   0.0000   0.0000   0.0000   0.0000   0.0000
     0.0000   0.0000   0.0000   0.0000   0.0000   0.0000   0.0000   0.0000
     0.0000   0.0000   0.0000   0.0000   0.0000   0.0000   0.0000   0.0000
     0.0000   0.0000   0.0000   0.0000   0.0000   0.0000   0.0000   0.0000
     0.0000   0.0000   0.0000   0.0000   0.0000   0.0000   0.0000   0.0000

          k = 0.8800 0.0000 0.0000 ( 10367 PWs)   bands (ev):

   -20.4927 -13.8554  -9.4228  -9.4228   0.1604   1.7233   1.7233   1.7712
     1.9740   2.7299   3.3604   3.3604   3.8207   4.6914   4.8754   5.1758
     5.1758   6.2741   6.3619   6.3619   6.8419   7.6069   7.6816   7.6816
     7.8428   8.3270   8.3270   9.5454  10.9119  11.4253  12.1748  12.1748
    12.4825  14.1017  14.1017  14.4109  14.5698  14.8187  14.8799  14.8799
    14.8918  16.2646  16.2646  17.4482  17.5186  17.6673  18.2557  18.2557
    19.1384  19.2681  19.2992  19.5231  19.5231  19.7090  20.0964  20.1664

     occupation numbers 
     1.0000   1.0000   1.0000   1.0000   0.0000   0.0000   0.0000   0.0000
     0.0000   0.0000   0.0000   0.0000   0.0000   0.0000   0.0000   0.0000
     0.0000   0.0000   0.0000   0.0000   0.0000   0.0000   0.0000   0.0000
     0.0000   0.0000   0.0000   0.0000   0.0000   0.0000   0.0000   0.0000
     0.0000   0.0000   0.0000   0.0000   0.0000   0.0000   0.0000   0.0000
     0.0000   0.0000   0.0000   0.0000   0.0000   0.0000   0.0000   0.0000
     0.0000   0.0000   0.0000   0.0000   0.0000   0.0000   0.0000   0.0000

          k = 0.8900 0.0000 0.0000 ( 10367 PWs)   bands (ev):

   -20.5222 -13.7967  -9.4724  -9.4724   0.1098   1.6711   1.6711   1.7187
     1.9237   2.6774   3.3081   3.3081   3.7703   4.6118   4.8228   5.3983
     5.3983   6.2216   6.3096   6.3096   6.7904   7.5543   7.6291   7.6291
     7.7902   8.2750   8.2750   9.5005  10.8594  11.3728  12.1223  12.1223
    12.4310  14.0494  14.0494  14.3584  14.5194  14.7661  14.8274  14.8274
    14.8392  16.2128  16.2128  17.4071  17.6148  17.9004  18.4575  18.4575
    19.2155  19.4707  19.4707  19.5429  19.6565  19.6803  20.3710  20.3710

     occupation numbers 
     1.0000   1.0000   1.0000   1.0000   0.0000   0.0000   0.0000   0.0000
     0.0000   0.0000   0.0000   0.0000   0.0000   0.0000   0.0000   0.0000
     0.0000   0.0000   0.0000   0.0000   0.0000   0.0000   0.0000   0.0000
     0.0000   0.0000   0.0000   0.0000   0.0000   0.0000   0.0000   0.0000
     0.0000   0.0000   0.0000   0.0000   0.0000   0.0000   0.0000   0.0000
     0.0000   0.0000   0.0000   0.0000   0.0000   0.0000   0.0000   0.0000
     0.0000   0.0000   0.0000   0.0000   0.0000   0.0000   0.0000   0.0000

          k = 0.9000 0.0000 0.0000 ( 10355 PWs)   bands (ev):

   -20.5492 -13.7424  -9.5177  -9.5177   0.0635   1.6233   1.6233   1.6707
     1.8776   2.6294   3.2603   3.2603   3.7244   4.5381   4.7749   5.6095
     5.6096   6.1736   6.2618   6.2618   6.7433   7.5064   7.5811   7.5811
     7.7422   8.2275   8.2275   9.4594  10.8114  11.3248  12.0744  12.0744
    12.3839  14.0017  14.0017  14.3104  14.4733  14.7181  14.7794  14.7794
    14.7912  16.1654  16.1654  17.3689  17.5668  18.2862  18.6030  18.6030
    19.1675  19.4228  19.4228  19.6085  19.9519  20.0647  20.3295  20.3295

     occupation numbers 
     1.0000   1.0000   1.0000   1.0000   0.0000   0.0000   0.0000   0.0000
     0.0000   0.0000   0.0000   0.0000   0.0000   0.0000   0.0000   0.0000
     0.0000   0.0000   0.0000   0.0000   0.0000   0.0000   0.0000   0.0000
     0.0000   0.0000   0.0000   0.0000   0.0000   0.0000   0.0000   0.0000
     0.0000   0.0000   0.0000   0.0000   0.0000   0.0000   0.0000   0.0000
     0.0000   0.0000   0.0000   0.0000   0.0000   0.0000   0.0000   0.0000
     0.0000   0.0000   0.0000   0.0000   0.0000   0.0000   0.0000   0.0000

          k = 0.9100 0.0000 0.0000 ( 10343 PWs)   bands (ev):

   -20.5736 -13.6929  -9.5587  -9.5587   0.0217   1.5801   1.5801   1.6273
     1.8360   2.5860   3.2170   3.2170   3.6828   4.4706   4.7314   5.8080
     5.8081   6.1302   6.2186   6.2186   6.7008   7.4629   7.5378   7.5378
     7.6988   8.1845   8.1845   9.4222  10.7680  11.2814  12.0310  12.0310
    12.3413  13.9586  13.9586  14.2670  14.4316  14.6747  14.7359  14.7359
    14.7478  16.1225  16.1225  17.3342  17.5234  18.6751  18.6888  18.6888
    19.1241  19.3796  19.3796  19.5651  20.2878  20.2878  20.3655  20.4522

     occupation numbers 
     1.0000   1.0000   1.0000   1.0000   0.0000   0.0000   0.0000   0.0000
     0.0000   0.0000   0.0000   0.0000   0.0000   0.0000   0.0000   0.0000
     0.0000   0.0000   0.0000   0.0000   0.0000   0.0000   0.0000   0.0000
     0.0000   0.0000   0.0000   0.0000   0.0000   0.0000   0.0000   0.0000
     0.0000   0.0000   0.0000   0.0000   0.0000   0.0000   0.0000   0.0000
     0.0000   0.0000   0.0000   0.0000   0.0000   0.0000   0.0000   0.0000
     0.0000   0.0000   0.0000   0.0000   0.0000   0.0000   0.0000   0.0000

          k = 0.9200 0.0000 0.0000 ( 10335 PWs)   bands (ev):

   -20.5955 -13.6481  -9.5953  -9.5953  -0.0158   1.5415   1.5415   1.5884
     1.7987   2.5471   3.1783   3.1783   3.6455   4.4095   4.6926   5.9919
     5.9919   6.0913   6.1803   6.1803   6.6627   7.4241   7.4989   7.4989
     7.6600   8.1461   8.1461   9.3888  10.7291  11.2426  11.9922  11.9922
    12.3031  13.9199  13.9199  14.2281  14.3942  14.6358  14.6971  14.6971
    14.7090  16.0841  16.0841  17.3029  17.4846  18.7209  18.7209  19.0666
    19.0853  19.3409  19.3409  19.5262  20.2502  20.2502  20.7837  20.8419

     occupation numbers 
     1.0000   1.0000   1.0000   1.0000   0.0000   0.0000   0.0000   0.0000
     0.0000   0.0000   0.0000   0.0000   0.0000   0.0000   0.0000   0.0000
     0.0000   0.0000   0.0000   0.0000   0.0000   0.0000   0.0000   0.0000
     0.0000   0.0000   0.0000   0.0000   0.0000   0.0000   0.0000   0.0000
     0.0000   0.0000   0.0000   0.0000   0.0000   0.0000   0.0000   0.0000
     0.0000   0.0000   0.0000   0.0000   0.0000   0.0000   0.0000   0.0000
     0.0000   0.0000   0.0000   0.0000   0.0000   0.0000   0.0000   0.0000

          k = 0.9300 0.0000 0.0000 ( 10347 PWs)   bands (ev):

   -20.6148 -13.6082  -9.6277  -9.6277  -0.0489   1.5074   1.5074   1.5541
     1.7658   2.5129   3.1442   3.1442   3.6127   4.3551   4.6583   6.0571
     6.1398   6.1399   6.1664   6.1664   6.6291   7.3898   7.4647   7.4647
     7.6257   8.1121   8.1121   9.3593  10.6948  11.2083  11.9580  11.9580
    12.2695  13.8858  13.8858  14.1939  14.3613  14.6016  14.6628  14.6628
    14.6747  16.0502  16.0502  17.2752  17.4503  18.7117  18.7117  19.0510
    19.3068  19.3068  19.4601  19.4919  20.2169  20.2169  21.2064  21.2328

     occupation numbers 
     1.0000   1.0000   1.0000   1.0000   0.0000   0.0000   0.0000   0.0000
     0.0000   0.0000   0.0000   0.0000   0.0000   0.0000   0.0000   0.0000
     0.0000   0.0000   0.0000   0.0000   0.0000   0.0000   0.0000   0.0000
     0.0000   0.0000   0.0000   0.0000   0.0000   0.0000   0.0000   0.0000
     0.0000   0.0000   0.0000   0.0000   0.0000   0.0000   0.0000   0.0000
     0.0000   0.0000   0.0000   0.0000   0.0000   0.0000   0.0000   0.0000
     0.0000   0.0000   0.0000   0.0000   0.0000   0.0000   0.0000   0.0000

          k = 0.9400 0.0000 0.0000 ( 10339 PWs)   bands (ev):

   -20.6316 -13.5735  -9.6557  -9.6557  -0.0775   1.4779   1.4779   1.5244
     1.7373   2.4831   3.1146   3.1146   3.5842   4.3076   4.6286   6.0274
     6.1153   6.1153   6.3117   6.3117   6.6000   7.3601   7.4350   7.4350
     7.5960   8.0827   8.0827   9.3338  10.6651  11.1786  11.9283  11.9283
    12.2403  13.8563  13.8563  14.1642  14.3327  14.5719  14.6331  14.6331
    14.6450  16.0209  16.0209  17.2512  17.4206  18.6761  18.6761  19.0213
    19.2772  19.2772  19.4622  19.8545  20.1880  20.1880  21.2167  21.3952

     occupation numbers 
     1.0000   1.0000   1.0000   1.0000   0.0000   0.0000   0.0000   0.0000
     0.0000   0.0000   0.0000   0.0000   0.0000   0.0000   0.0000   0.0000
     0.0000   0.0000   0.0000   0.0000   0.0000   0.0000   0.0000   0.0000
     0.0000   0.0000   0.0000   0.0000   0.0000   0.0000   0.0000   0.0000
     0.0000   0.0000   0.0000   0.0000   0.0000   0.0000   0.0000   0.0000
     0.0000   0.0000   0.0000   0.0000   0.0000   0.0000   0.0000   0.0000
     0.0000   0.0000   0.0000   0.0000   0.0000   0.0000   0.0000   0.0000

          k = 0.9500 0.0000 0.0000 ( 10355 PWs)   bands (ev):

   -20.6458 -13.5438  -9.6795  -9.6795  -0.1018   1.4528   1.4528   1.4993
     1.7132   2.4580   3.0895   3.0895   3.5601   4.2671   4.6035   6.0022
     6.0905   6.0905   6.4423   6.4423   6.5753   7.3350   7.4099   7.4099
     7.5708   8.0578   8.0578   9.3121  10.6400  11.1535  11.9032  11.9032
    12.2156  13.8313  13.8313  14.1390  14.3085  14.5467  14.6080  14.6080
    14.6199  15.9960  15.9960  17.2307  17.3955  18.6269  18.6269  18.9962
    19.2521  19.2521  19.4371  20.1634  20.1634  20.2479  21.1916  21.3778

     occupation numbers 
     1.0000   1.0000   1.0000   1.0000   0.0000   0.0000   0.0000   0.0000
     0.0000   0.0000   0.0000   0.0000   0.0000   0.0000   0.0000   0.0000
     0.0000   0.0000   0.0000   0.0000   0.0000   0.0000   0.0000   0.0000
     0.0000   0.0000   0.0000   0.0000   0.0000   0.0000   0.0000   0.0000
     0.0000   0.0000   0.0000   0.0000   0.0000   0.0000   0.0000   0.0000
     0.0000   0.0000   0.0000   0.0000   0.0000   0.0000   0.0000   0.0000
     0.0000   0.0000   0.0000   0.0000   0.0000   0.0000   0.0000   0.0000

          k = 0.9600 0.0000 0.0000 ( 10355 PWs)   bands (ev):

   -20.6574 -13.5194  -9.6989  -9.6989  -0.1216   1.4324   1.4324   1.4787
     1.6935   2.4374   3.0690   3.0690   3.5404   4.2337   4.5829   5.9817
     6.0701   6.0701   6.5518   6.5518   6.5551   7.3144   7.3893   7.3893
     7.5503   8.0374   8.0374   9.2944  10.6195  11.1329  11.8827  11.8827
    12.1954  13.8108  13.8108  14.1185  14.2886  14.5262  14.5874  14.5874
    14.5993  15.9756  15.9756  17.2140  17.3749  18.5745  18.5745  18.9756
    19.2316  19.2316  19.4165  20.1432  20.1432  20.6374  21.1711  21.3636

     occupation numbers 
     1.0000   1.0000   1.0000   1.0000   0.0000   0.0000   0.0000   0.0000
     0.0000   0.0000   0.0000   0.0000   0.0000   0.0000   0.0000   0.0000
     0.0000   0.0000   0.0000   0.0000   0.0000   0.0000   0.0000   0.0000
     0.0000   0.0000   0.0000   0.0000   0.0000   0.0000   0.0000   0.0000
     0.0000   0.0000   0.0000   0.0000   0.0000   0.0000   0.0000   0.0000
     0.0000   0.0000   0.0000   0.0000   0.0000   0.0000   0.0000   0.0000
     0.0000   0.0000   0.0000   0.0000   0.0000   0.0000   0.0000   0.0000

          k = 0.9700 0.0000 0.0000 ( 10379 PWs)   bands (ev):

   -20.6665 -13.5004  -9.7140  -9.7140  -0.1371   1.4165   1.4165   1.4627
     1.6781   2.4214   3.0531   3.0531   3.5250   4.2077   4.5669   5.9657
     6.0542   6.0542   6.5394   6.6388   6.6388   7.2984   7.3734   7.3734
     7.5343   8.0215   8.0215   9.2806  10.6035  11.1169  11.8667  11.8667
    12.1797  13.7949  13.7949  14.1025  14.2732  14.5102  14.5714  14.5714
    14.5833  15.9598  15.9598  17.2009  17.3589  18.5267  18.5267  18.9596
    19.2156  19.2156  19.4005  20.1275  20.1275  21.0168  21.1551  21.3525

     occupation numbers 
     1.0000   1.0000   1.0000   1.0000   0.0000   0.0000   0.0000   0.0000
     0.0000   0.0000   0.0000   0.0000   0.0000   0.0000   0.0000   0.0000
     0.0000   0.0000   0.0000   0.0000   0.0000   0.0000   0.0000   0.0000
     0.0000   0.0000   0.0000   0.0000   0.0000   0.0000   0.0000   0.0000
     0.0000   0.0000   0.0000   0.0000   0.0000   0.0000   0.0000   0.0000
     0.0000   0.0000   0.0000   0.0000   0.0000   0.0000   0.0000   0.0000
     0.0000   0.0000   0.0000   0.0000   0.0000   0.0000   0.0000   0.0000

          k = 0.9800 0.0000 0.0000 ( 10387 PWs)   bands (ev):

   -20.6729 -13.4868  -9.7248  -9.7248  -0.1481   1.4051   1.4051   1.4513
     1.6671   2.4100   3.0417   3.0417   3.5141   4.1890   4.5555   5.9543
     6.0428   6.0428   6.5282   6.7020   6.7020   7.2870   7.3619   7.3619
     7.5228   8.0102   8.0102   9.2707  10.5920  11.1055  11.8553  11.8553
    12.1685  13.7836  13.7836  14.0910  14.2622  14.4987  14.5600  14.5600
    14.5719  15.9485  15.9485  17.1916  17.3475  18.4889  18.4889  18.9482
    19.2042  19.2042  19.3891  20.1163  20.1163  21.1436  21.3427  21.3736

     occupation numbers 
     1.0000   1.0000   1.0000   1.0000   0.0000   0.0000   0.0000   0.0000
     0.0000   0.0000   0.0000   0.0000   0.0000   0.0000   0.0000   0.0000
     0.0000   0.0000   0.0000   0.0000   0.0000   0.0000   0.0000   0.0000
     0.0000   0.0000   0.0000   0.0000   0.0000   0.0000   0.0000   0.0000
     0.0000   0.0000   0.0000   0.0000   0.0000   0.0000   0.0000   0.0000
     0.0000   0.0000   0.0000   0.0000   0.0000   0.0000   0.0000   0.0000
     0.0000   0.0000   0.0000   0.0000   0.0000   0.0000   0.0000   0.0000

          k = 0.9900 0.0000 0.0000 ( 10379 PWs)   bands (ev):

   -20.6768 -13.4785  -9.7313  -9.7313  -0.1547   1.3983   1.3983   1.4444
     1.6605   2.4032   3.0349   3.0349   3.5075   4.1778   4.5486   5.9474
     6.0360   6.0360   6.5215   6.7402   6.7402   7.2801   7.3551   7.3551
     7.5160   8.0034   8.0034   9.2648  10.5852  11.0986  11.8484  11.8484
    12.1618  13.7767  13.7767  14.0842  14.2556  14.4919  14.5531  14.5531
    14.5650  15.9417  15.9417  17.1860  17.3407  18.4649  18.4649  18.9414
    19.1974  19.1974  19.3823  20.1096  20.1096  21.1368  21.3393  21.6640

     occupation numbers 
     1.0000   1.0000   1.0000   1.0000   0.0000   0.0000   0.0000   0.0000
     0.0000   0.0000   0.0000   0.0000   0.0000   0.0000   0.0000   0.0000
     0.0000   0.0000   0.0000   0.0000   0.0000   0.0000   0.0000   0.0000
     0.0000   0.0000   0.0000   0.0000   0.0000   0.0000   0.0000   0.0000
     0.0000   0.0000   0.0000   0.0000   0.0000   0.0000   0.0000   0.0000
     0.0000   0.0000   0.0000   0.0000   0.0000   0.0000   0.0000   0.0000
     0.0000   0.0000   0.0000   0.0000   0.0000   0.0000   0.0000   0.0000

     highest occupied, lowest unoccupied level (ev):    -4.5843   -4.2481

     Writing output data file ./outdir/carbyne.save/
 
     init_run     :      1.24s CPU      1.47s WALL (       1 calls)
     electrons    :     73.40s CPU     44.18s WALL (       1 calls)

     Called by init_run:
     wfcinit      :      0.00s CPU      0.00s WALL (       1 calls)
     wfcinit:atom :      0.02s CPU      0.01s WALL (       4 calls)
     wfcinit:wfcr :      2.95s CPU      1.69s WALL (       4 calls)
     potinit      :      0.56s CPU      0.60s WALL (       1 calls)
     hinit0       :      0.49s CPU      0.68s WALL (       1 calls)

     Called by electrons:
     c_bands      :     73.40s CPU     44.17s WALL (       1 calls)
     v_of_rho     :      0.40s CPU      0.29s WALL (       1 calls)
     v_h          :      0.03s CPU      0.02s WALL (       1 calls)
     v_xc         :      0.37s CPU      0.28s WALL (       1 calls)
     newd         :      0.05s CPU      0.03s WALL (       1 calls)
     PAW_pot      :      0.07s CPU      0.06s WALL (       1 calls)

     Called by c_bands:
     init_us_2    :      0.01s CPU      0.03s WALL (       4 calls)
     cegterg      :     57.66s CPU     29.75s WALL (       8 calls)

     Called by sum_band:

     Called by *egterg:
     cdiaghg      :      0.79s CPU      0.70s WALL (     120 calls)
     cegterg:over :      4.20s CPU      2.20s WALL (     116 calls)
     cegterg:upda :      3.26s CPU      1.65s WALL (     116 calls)
     cegterg:last :      5.47s CPU      3.16s WALL (      74 calls)
     h_psi        :     44.64s CPU     22.56s WALL (     128 calls)
     s_psi        :      0.78s CPU      0.40s WALL (     128 calls)
     g_psi        :      0.31s CPU      0.15s WALL (     116 calls)

     Called by h_psi:
     h_psi:calbec :      0.60s CPU      0.30s WALL (     128 calls)
     vloc_psi     :     42.85s CPU     21.64s WALL (     128 calls)
     add_vuspsi   :      0.81s CPU      0.41s WALL (     128 calls)

     General routines
     calbec       :      0.60s CPU      0.30s WALL (     128 calls)
     fft          :      0.12s CPU      0.42s WALL (      13 calls)
     ffts         :      0.01s CPU      0.00s WALL (       1 calls)
     fftw         :     34.12s CPU     17.24s WALL (    8558 calls)
     interpolate  :      0.03s CPU      0.02s WALL (       1 calls)
     davcio       :      0.04s CPU      0.06s WALL (       8 calls)
 
     Parallel routines

     PAW routines
     PAW_pot      :      0.07s CPU      0.06s WALL (       1 calls)
 
     PWSCF        :   1m15.13s CPU     47.86s WALL

 
   This run was terminated on:  21:28: 8  24Jun2021            

=------------------------------------------------------------------------------=
   JOB DONE.
=------------------------------------------------------------------------------=
