 written on 15Jun2021 at 22:00:36 
   20.0000000000000       0.000000000000000E+000  0.000000000000000E+000
  0.000000000000000E+000   20.0000000000000       0.000000000000000E+000
  0.000000000000000E+000  0.000000000000000E+000   2.56598541000000     
           4
          41
    2    1    1    1    1    1    1    1    1    1    1    1    1    1    1
    1    1    1    1    1    1    1    1    1    1    1    1    1    1    1
    1    1    1    1    1    1    1    1    1    1    2

    0    0  -20
    1    1    0.92121676E-03  0.10297233E-15
    2    1    0.16618252E-04  0.42821966E-06
    3    1   -0.66603045E-03  0.82017672E-06
    4    1   -0.18368658E-03 -0.91777553E-05
    1    2    0.16618252E-04 -0.42821966E-06
    2    2    0.22345519E-02 -0.65025054E-16
    3    2    0.64594635E-05  0.65598081E-06
    4    2   -0.14481095E-01  0.10746515E-04
    1    3   -0.66603045E-03 -0.82017672E-06
    2    3    0.64594635E-05 -0.65598081E-06
    3    3    0.11967131E-02  0.85774024E-16
    4    3    0.81230613E-05 -0.82760531E-06
    1    4   -0.18368658E-03  0.91777553E-05
    2    4   -0.14481095E-01 -0.10746515E-04
    3    4    0.81230613E-05  0.82760531E-06
    4    4   -0.58713354E-03  0.38576688E-15

    0    0  -19
    1    1   -0.11085313E-03 -0.15284287E-07
    2    1    0.54199072E-05 -0.63426476E-06
    3    1   -0.66602678E-03  0.79481765E-06
    4    1   -0.18298734E-03  0.14965684E-07
    1    2    0.55157501E-05 -0.89212236E-06
    2    2    0.29649845E-03  0.54034246E-08
    3    2    0.65785419E-05 -0.10169738E-05
    4    2   -0.14481866E-01  0.98122316E-05
    1    3    0.65708467E-03  0.78290301E-06
    2    3   -0.76144038E-05 -0.15663739E-05
    3    3   -0.16470530E-03  0.82154041E-08
    4    3    0.36722707E-05  0.13154107E-04
    1    4    0.14483995E-03  0.17729464E-05
    2    4    0.11525495E-01  0.76243481E-05
    3    4    0.20154643E-05  0.13201010E-04
    4    4   -0.11008873E-02  0.13926420E-07

    0    0  -18
    1    1   -0.50054815E-03  0.45983779E-10
    2    1   -0.20796771E-04 -0.55646230E-06
    3    1    0.65708861E-03 -0.82503426E-06
    4    1    0.14567408E-03  0.91265538E-05
    1    2   -0.20792892E-04  0.49824387E-06
    2    2   -0.21876819E-02 -0.30523433E-08
    3    2   -0.74240675E-05 -0.11779007E-05
    4    2    0.11524571E-01 -0.87355548E-05
    1    3    0.18886388E-03  0.21814152E-06
    2    3   -0.64895215E-07  0.63282313E-06
    3    3   -0.63352032E-03  0.45251244E-08
    4    3   -0.10256143E-04  0.37073056E-05
    1    4    0.22276634E-03 -0.88790054E-05
    2    4    0.17274260E-01  0.12631001E-04
    3    4   -0.10620946E-04  0.21269681E-05
    4    4    0.23767070E-03  0.45610996E-09

    0    0  -17
    1    1   -0.11523806E-03  0.54766503E-08
    2    1   -0.11739717E-04  0.90062136E-07
    3    1    0.18886316E-03 -0.19896421E-06
    4    1    0.22224470E-03  0.21228750E-05
    1    2   -0.11784720E-04  0.64078231E-06
    2    2   -0.90176426E-03  0.23610986E-08
    3    2   -0.15893679E-06  0.69571483E-06
    4    2    0.17274871E-01 -0.11893982E-04
    1    3    0.42617001E-03  0.55914829E-06
    2    3   -0.29209033E-05  0.18429345E-05
    3    3   -0.10393787E-03 -0.97481926E-08
    4    3   -0.75668195E-05 -0.13343809E-04
    1    4   -0.10776854E-03 -0.33705920E-05
    2    4   -0.82322038E-02 -0.52023944E-05
    3    4   -0.58845399E-05 -0.13562131E-04
    4    4    0.33532607E-02 -0.10714954E-07

    0    0  -16
    1    1   -0.44072717E-03  0.87814950E-08
    2    1    0.29771932E-04  0.11403666E-05
    3    1    0.42616658E-03 -0.49929716E-06
    4    1   -0.10872413E-03 -0.89221469E-05
    1    2    0.29715657E-04 -0.33920414E-06
    2    2    0.20368517E-02 -0.46013546E-09
    3    2   -0.31811309E-05  0.20099993E-05
    4    2   -0.82311273E-02  0.64821580E-05
    1    3   -0.25710714E-03 -0.29734196E-06
    2    3   -0.84861996E-06 -0.91087062E-06
    3    3   -0.62292891E-03 -0.82684243E-08
    4    3    0.15566264E-04 -0.64542955E-05
    1    4   -0.26067135E-03  0.81234831E-05
    2    4   -0.20044623E-01 -0.14488425E-04
    3    4    0.16280311E-04 -0.50513461E-05
    4    4    0.88525844E-03 -0.34290520E-08

    0    0  -15
    1    1    0.14982554E-02  0.81344667E-08
    2    1    0.60226700E-05  0.31164587E-06
    3    1   -0.25711320E-03  0.27094315E-06
    4    1   -0.26038216E-03 -0.46920908E-05
    1    2    0.59990346E-05  0.43756503E-07
    2    2    0.15442852E-02 -0.12801312E-07
    3    2   -0.72082788E-06 -0.95241798E-06
    4    2   -0.20045059E-01  0.13976982E-04
    1    3   -0.24706619E-02 -0.30795188E-05
    2    3    0.24090614E-04 -0.13901722E-05
    3    3    0.19116137E-02  0.12811081E-07
    4    3    0.62411782E-05  0.13410070E-04
    1    4    0.68874351E-04  0.51723772E-05
    2    4    0.43504691E-02  0.23444801E-05
    3    4    0.45427562E-05  0.14014843E-04
    4    4   -0.57673669E-02  0.53541191E-08

    0    0  -14
    1    1    0.10490744E-02 -0.31991997E-07
    2    1   -0.34197320E-04 -0.21742820E-05
    3    1   -0.24706596E-02  0.30132344E-05
    4    1    0.69987806E-04  0.87891821E-05
    1    2   -0.34006671E-04 -0.49515671E-06
    2    2   -0.17445500E-02  0.14890241E-07
    3    2    0.24354470E-04 -0.26452810E-05
    4    2    0.43492252E-02 -0.38071227E-05
    1    3    0.19454670E-02  0.23816164E-05
    2    3   -0.14856144E-04  0.96167852E-06
    3    3    0.14215427E-02  0.11571365E-07
    4    3   -0.21205600E-04  0.91932513E-05
    1    4    0.29574907E-03 -0.69418201E-05
    2    4    0.22929301E-01  0.16384665E-04
    3    4   -0.22251952E-04  0.79581631E-05
    4    4   -0.30387441E-02  0.10303987E-07

    0    0  -13
    1    1   -0.42686268E-02 -0.14775960E-07
    2    1    0.13825494E-04 -0.89351115E-07
    3    1    0.19454808E-02 -0.23414875E-05
    4    1    0.29576924E-03  0.76271569E-05
    1    2    0.13885606E-04 -0.78307689E-06
    2    2   -0.22527372E-02  0.17686201E-07
    3    2   -0.15050886E-04  0.18227279E-05
    4    2    0.22929522E-01 -0.16152556E-04
    1    3    0.46493153E-02  0.57387867E-05
    2    3   -0.47390705E-04 -0.78246738E-07
    3    3   -0.55416044E-02 -0.16575729E-07
    4    3    0.12367975E-05 -0.12744498E-04
    1    4   -0.20408640E-04 -0.77439555E-05
    2    4    0.53777604E-03  0.12196773E-05
    3    4    0.28942028E-05 -0.14021718E-04
    4    4    0.84832562E-02  0.14251266E-09

    0    0  -12
    1    1   -0.19882543E-03  0.71463553E-07
    2    1    0.21282341E-04  0.34352566E-05
    3    1    0.46493127E-02 -0.56902433E-05
    4    1   -0.21735681E-04 -0.89697542E-05
    1    2    0.20873757E-04  0.23910249E-05
    2    2    0.12272722E-02 -0.41085486E-07
    3    2   -0.47536723E-04  0.23749762E-05
    4    2    0.53921035E-03  0.44397554E-06
    1    3   -0.60154448E-02 -0.73937639E-05
    2    3    0.55155545E-04 -0.15241231E-06
    3    3   -0.25248574E-03 -0.14598912E-07
    4    3    0.22832521E-04 -0.12133572E-04
    1    4   -0.32778842E-03  0.51923179E-05
    2    4   -0.26093556E-01 -0.18461628E-04
    3    4    0.24243307E-04 -0.10906964E-04
    4    4    0.68028694E-02 -0.21547757E-07

    0    0  -11
    1    1    0.80911995E-02  0.39662751E-08
    2    1   -0.43975374E-04 -0.10433005E-05
    3    1   -0.60154687E-02  0.73453619E-05
    4    1   -0.32818892E-03 -0.11121033E-04
    1    2   -0.43980243E-04  0.11021485E-05
    2    2    0.30622192E-02 -0.91742834E-08
    3    2    0.55382036E-04 -0.30672554E-05
    4    2   -0.26093501E-01  0.18579405E-04
    1    3   -0.56229262E-02 -0.68610337E-05
    2    3    0.59452124E-04  0.25144933E-05
    3    3    0.10489666E-01  0.21515304E-07
    4    3   -0.14311731E-04  0.10997730E-04
    1    4   -0.50487442E-04  0.11409704E-04
    2    4   -0.72208613E-02 -0.60906630E-05
    3    4   -0.15796848E-04  0.13242857E-04
    4    4   -0.11703004E-01 -0.41764037E-08

    0    0  -10
    1    1   -0.32600464E-02 -0.12368411E-06
    2    1    0.22776238E-04 -0.44213420E-05
    3    1   -0.56229254E-02  0.68616228E-05
    4    1   -0.48857425E-04  0.92153689E-05
    1    2    0.23471200E-04 -0.55140905E-05
    2    2   -0.28839619E-03  0.75067530E-07
    3    2    0.59311122E-04 -0.57182762E-06
    4    2   -0.72225299E-02  0.41919923E-05
    1    3    0.12835600E-01  0.15745868E-04
    2    3   -0.12365253E-03 -0.23477226E-05
    3    3   -0.44074798E-02  0.18114923E-07
    4    3   -0.17095768E-04  0.16285718E-04
    1    4    0.36032507E-03 -0.29560027E-05
    2    4    0.29779236E-01  0.20830727E-04
    3    4   -0.18993533E-04  0.14751631E-04
    4    4   -0.13467918E-01  0.36720251E-07

    0    0   -9
    1    1   -0.12250378E-01  0.35569022E-07
    2    1    0.76746962E-04  0.33337177E-05
    3    1    0.12835635E-01 -0.15712435E-04
    4    1    0.36121804E-03  0.15300732E-04
    1    2    0.76557335E-04 -0.39173827E-06
    2    2   -0.40036445E-02 -0.21174458E-07
    3    2   -0.12378780E-03  0.40380374E-05
    4    2    0.29778804E-01 -0.21418730E-04
    1    3    0.37685603E-02  0.44133943E-05
    2    3   -0.44904727E-04 -0.60455588E-05
    3    3   -0.15684105E-01 -0.31099937E-07
    4    3    0.31094852E-04 -0.72788356E-05
    1    4    0.16719013E-03 -0.17069907E-04
    2    4    0.17428789E-01  0.13471930E-04
    3    4    0.32201717E-04 -0.10826521E-04
    4    4    0.15741057E-01  0.66388516E-08

    0    0   -8
    1    1    0.10618131E-01  0.18727047E-06
    2    1   -0.11587735E-03  0.47033560E-05
    3    1    0.37685704E-02 -0.45022152E-05
    4    1    0.16515998E-03 -0.93753673E-05
    1    2   -0.11691198E-03  0.10300270E-04
    2    2   -0.15920548E-02 -0.11425591E-06
    3    2   -0.44253380E-04 -0.36501658E-05
    4    2    0.17430804E-01 -0.11289881E-04
    1    3   -0.22934336E-01 -0.27990964E-04
    2    3    0.22557262E-03  0.74345755E-05
    3    3    0.14224557E-01 -0.24725751E-07
    4    3    0.15920747E-05 -0.22896768E-04
    1    4   -0.40114448E-03 -0.59576188E-06
    2    4   -0.34435701E-01 -0.23777022E-04
    3    4    0.43162120E-05 -0.20602542E-04
    4    4    0.26225098E-01 -0.56870014E-07

    0    0   -7
    1    1    0.16144864E-01 -0.11690489E-06
    2    1   -0.10789417E-03 -0.70108034E-05
    3    1   -0.22934392E-01  0.28016838E-04
    4    1   -0.40274111E-03 -0.21485997E-04
    1    2   -0.10730539E-03 -0.17454141E-05
    2    2    0.50313632E-02  0.77360854E-07
    3    2    0.22536525E-03 -0.41151767E-05
    4    2   -0.34434644E-01  0.25093442E-04
    1    3    0.31396974E-02  0.44202328E-05
    2    3   -0.13723915E-04  0.11675768E-04
    3    3    0.20035071E-01  0.52562290E-07
    4    3   -0.52749307E-04  0.58447262E-06
    1    4   -0.38271560E-03  0.26051496E-04
    2    4   -0.35820638E-01 -0.26690116E-04
    3    4   -0.53068102E-04  0.60314434E-05
    4    4   -0.21081708E-01 -0.83979221E-08

    0    0   -6
    1    1   -0.24761418E-01 -0.27349387E-06
    2    1    0.30290303E-03 -0.36633032E-05
    3    1    0.31396497E-02 -0.41736132E-05
    4    1   -0.38008564E-03  0.82717758E-05
    1    2    0.30442407E-03 -0.18316535E-04
    2    2    0.61882597E-02  0.16455103E-06
    3    2   -0.15325586E-04  0.12139684E-04
    4    2   -0.35823255E-01  0.24212836E-04
    1    3    0.39386266E-01  0.47618051E-04
    2    3   -0.39266209E-03 -0.17755162E-04
    3    3   -0.32884762E-01  0.32354032E-07
    4    3    0.24662182E-04  0.36067811E-04
    1    4    0.46766896E-03  0.72724264E-05
    2    4    0.41300487E-01  0.27996125E-04
    3    4    0.20355715E-04  0.32411804E-04
    4    4   -0.54727287E-01  0.87402224E-07

    0    0   -5
    1    1   -0.20395970E-01  0.28140664E-06
    2    1    0.16019093E-03  0.13928930E-04
    3    1    0.39386379E-01 -0.47783851E-04
    4    1    0.47061891E-03  0.32615448E-04
    1    2    0.15886207E-03  0.60355952E-05
    2    2   -0.54247331E-02 -0.18618020E-06
    3    2   -0.39165590E-03  0.22046933E-05
    4    2    0.41298102E-01 -0.30598378E-04
    1    3   -0.21279469E-01 -0.27581439E-04
    2    3    0.15464675E-03 -0.27154177E-04
    3    3   -0.23301076E-01 -0.12029571E-06
    4    3    0.94174754E-04  0.14850040E-04
    1    4    0.88692394E-03 -0.46268989E-04
    2    4    0.80015542E-01  0.58153371E-04
    3    4    0.92730259E-04  0.56623820E-05
    4    4    0.28087308E-01  0.27539636E-07

    0    0   -4
    1    1    0.58573745E-01  0.48563154E-06
    2    1   -0.80596421E-03  0.95323684E-06
    3    1   -0.21279304E-01  0.26933126E-04
    4    1    0.88314542E-03 -0.47876892E-05
    1    2   -0.80877849E-03  0.40216191E-04
    2    2   -0.23320141E-01 -0.28849391E-06
    3    2    0.15875216E-03 -0.34494681E-04
    4    2    0.80019620E-01 -0.55538547E-04
    1    3   -0.80811050E-01 -0.95859266E-04
    2    3    0.82709332E-03  0.45564318E-04
    3    3    0.76984409E-01 -0.24176389E-07
    4    3   -0.66033947E-04 -0.69668790E-04
    1    4   -0.64782909E-03 -0.27263843E-04
    2    4   -0.58391352E-01 -0.38715390E-04
    3    4   -0.57483209E-04 -0.63080491E-04
    4    4    0.14109755E+00 -0.18719563E-06

    0    0   -3
    1    1    0.32579344E-01 -0.67084759E-06
    2    1   -0.48204093E-03 -0.34084362E-04
    3    1   -0.80811404E-01  0.96383985E-04
    4    1   -0.65453344E-03 -0.65103932E-04
    1    2   -0.47910688E-03 -0.96678095E-05
    2    2   -0.37062925E-02  0.37238428E-06
    3    2    0.82384100E-03  0.35770152E-05
    4    2   -0.58385474E-01  0.44073311E-04
    1    3    0.92263318E-01  0.11953214E-03
    2    3   -0.57508772E-03  0.13889136E-03
    3    3    0.27708984E-01  0.42832329E-06
    4    3   -0.25237515E-03 -0.71334939E-04
    1    4   -0.32269339E-02  0.15336447E-03
    2    4   -0.29036595E+00 -0.20730724E-03
    3    4   -0.24420216E-03 -0.48447527E-04
    4    4   -0.29434366E-01 -0.14297532E-06

    0    0   -2
    1    1   -0.22693731E+00 -0.30272262E-05
    2    1    0.49208107E-02 -0.17823065E-04
    3    1    0.92262622E-01 -0.11636414E-03
    4    1   -0.32162003E-02 -0.64248231E-06
    1    2    0.49398174E-02 -0.26130730E-03
    2    2    0.25256417E+00  0.24089952E-05
    3    2   -0.59537457E-03  0.16471377E-03
    4    2   -0.29038204E+00  0.20520559E-03
    1    3    0.37943620E+00  0.41421771E-03
    2    3   -0.49365835E-02 -0.55858802E-03
    3    3   -0.29498331E+00 -0.47728431E-06
    4    3    0.35378542E-03  0.34345327E-03
    1    4    0.67506537E-02 -0.11406176E-03
    2    4    0.61466009E+00  0.42934882E-03
    3    4    0.31045024E-03  0.31231079E-03
    4    4   -0.75427212E+00  0.11119834E-05

    0    0   -1
    1    1   -0.28089683E+00  0.16891581E-04
    2    1   -0.84306495E-02  0.48262130E-03
    3    1    0.37943971E+00 -0.42289308E-03
    4    1    0.67611699E-02  0.24879855E-03
    1    2   -0.85240259E-02  0.88817330E-03
    2    2   -0.12566676E+01 -0.11838994E-04
    3    2   -0.48795729E-02 -0.29347932E-03
    4    2    0.61466825E+00 -0.44314680E-03
    1    3   -0.28101812E+01 -0.35262499E-02
    2    3    0.26045642E-01  0.24708163E-03
    3    3    0.37075578E-01 -0.33335195E-05
    4    3    0.23353197E-03 -0.36100469E-03
    1    4   -0.43960948E-02 -0.22555831E-03
    2    4   -0.44740283E+00 -0.32043479E-03
    3    4    0.28791445E-03 -0.42461197E-03
    4    4    0.12435020E+01 -0.16877522E-05

    0    0    0
    1    1   -0.54107439E+01  0.15254730E-16
    2    1   -0.26394619E-01 -0.63966048E-03
    3    1   -0.28101918E+01  0.35176406E-02
    4    1   -0.44372590E-02 -0.38015758E-03
    1    2   -0.26394619E-01  0.63966048E-03
    2    2   -0.82561373E+01 -0.44301306E-16
    3    2    0.26101287E-01 -0.10801359E-02
    4    2   -0.44738923E+00  0.31643808E-03
    1    3   -0.28101918E+01 -0.35176406E-02
    2    3    0.26101287E-01  0.10801359E-02
    3    3   -0.41520521E+01 -0.21375049E-16
    4    3   -0.43197159E-03  0.19777836E-04
    1    4   -0.44372590E-02  0.38015758E-03
    2    4   -0.44738923E+00 -0.31643808E-03
    3    4   -0.43197159E-03 -0.19777836E-04
    4    4   -0.97675340E+00 -0.11430366E-16

    0    0    1
    1    1   -0.28089683E+00 -0.16891581E-04
    2    1   -0.85240259E-02 -0.88817330E-03
    3    1   -0.28101812E+01  0.35262499E-02
    4    1   -0.43960948E-02  0.22555831E-03
    1    2   -0.84306495E-02 -0.48262130E-03
    2    2   -0.12566676E+01  0.11838994E-04
    3    2    0.26045642E-01 -0.24708163E-03
    4    2   -0.44740283E+00  0.32043479E-03
    1    3    0.37943971E+00  0.42289308E-03
    2    3   -0.48795729E-02  0.29347932E-03
    3    3    0.37075578E-01  0.33335195E-05
    4    3    0.28791445E-03  0.42461197E-03
    1    4    0.67611699E-02 -0.24879855E-03
    2    4    0.61466825E+00  0.44314680E-03
    3    4    0.23353197E-03  0.36100469E-03
    4    4    0.12435020E+01  0.16877522E-05

    0    0    2
    1    1   -0.22693731E+00  0.30272262E-05
    2    1    0.49398174E-02  0.26130730E-03
    3    1    0.37943620E+00 -0.41421771E-03
    4    1    0.67506537E-02  0.11406176E-03
    1    2    0.49208107E-02  0.17823065E-04
    2    2    0.25256417E+00 -0.24089952E-05
    3    2   -0.49365835E-02  0.55858802E-03
    4    2    0.61466009E+00 -0.42934882E-03
    1    3    0.92262622E-01  0.11636414E-03
    2    3   -0.59537457E-03 -0.16471377E-03
    3    3   -0.29498331E+00  0.47728431E-06
    4    3    0.31045024E-03 -0.31231079E-03
    1    4   -0.32162003E-02  0.64248231E-06
    2    4   -0.29038204E+00 -0.20520559E-03
    3    4    0.35378542E-03 -0.34345327E-03
    4    4   -0.75427212E+00 -0.11119834E-05

    0    0    3
    1    1    0.32579344E-01  0.67084759E-06
    2    1   -0.47910688E-03  0.96678095E-05
    3    1    0.92263318E-01 -0.11953214E-03
    4    1   -0.32269339E-02 -0.15336447E-03
    1    2   -0.48204093E-03  0.34084362E-04
    2    2   -0.37062925E-02 -0.37238428E-06
    3    2   -0.57508772E-03 -0.13889136E-03
    4    2   -0.29036595E+00  0.20730724E-03
    1    3   -0.80811404E-01 -0.96383985E-04
    2    3    0.82384100E-03 -0.35770152E-05
    3    3    0.27708984E-01 -0.42832329E-06
    4    3   -0.24420216E-03  0.48447527E-04
    1    4   -0.65453344E-03  0.65103932E-04
    2    4   -0.58385474E-01 -0.44073311E-04
    3    4   -0.25237515E-03  0.71334939E-04
    4    4   -0.29434366E-01  0.14297532E-06

    0    0    4
    1    1    0.58573745E-01 -0.48563154E-06
    2    1   -0.80877849E-03 -0.40216191E-04
    3    1   -0.80811050E-01  0.95859266E-04
    4    1   -0.64782909E-03  0.27263843E-04
    1    2   -0.80596421E-03 -0.95323684E-06
    2    2   -0.23320141E-01  0.28849391E-06
    3    2    0.82709332E-03 -0.45564318E-04
    4    2   -0.58391352E-01  0.38715390E-04
    1    3   -0.21279304E-01 -0.26933126E-04
    2    3    0.15875216E-03  0.34494681E-04
    3    3    0.76984409E-01  0.24176389E-07
    4    3   -0.57483209E-04  0.63080491E-04
    1    4    0.88314542E-03  0.47876892E-05
    2    4    0.80019620E-01  0.55538547E-04
    3    4   -0.66033947E-04  0.69668790E-04
    4    4    0.14109755E+00  0.18719563E-06

    0    0    5
    1    1   -0.20395970E-01 -0.28140664E-06
    2    1    0.15886207E-03 -0.60355952E-05
    3    1   -0.21279469E-01  0.27581439E-04
    4    1    0.88692394E-03  0.46268989E-04
    1    2    0.16019093E-03 -0.13928930E-04
    2    2   -0.54247331E-02  0.18618020E-06
    3    2    0.15464675E-03  0.27154177E-04
    4    2    0.80015542E-01 -0.58153371E-04
    1    3    0.39386379E-01  0.47783851E-04
    2    3   -0.39165590E-03 -0.22046933E-05
    3    3   -0.23301076E-01  0.12029571E-06
    4    3    0.92730259E-04 -0.56623820E-05
    1    4    0.47061891E-03 -0.32615448E-04
    2    4    0.41298102E-01  0.30598378E-04
    3    4    0.94174754E-04 -0.14850040E-04
    4    4    0.28087308E-01 -0.27539636E-07

    0    0    6
    1    1   -0.24761418E-01  0.27349387E-06
    2    1    0.30442407E-03  0.18316535E-04
    3    1    0.39386266E-01 -0.47618051E-04
    4    1    0.46766896E-03 -0.72724264E-05
    1    2    0.30290303E-03  0.36633032E-05
    2    2    0.61882597E-02 -0.16455103E-06
    3    2   -0.39266209E-03  0.17755162E-04
    4    2    0.41300487E-01 -0.27996125E-04
    1    3    0.31396497E-02  0.41736132E-05
    2    3   -0.15325586E-04 -0.12139684E-04
    3    3   -0.32884762E-01 -0.32354032E-07
    4    3    0.20355715E-04 -0.32411804E-04
    1    4   -0.38008564E-03 -0.82717758E-05
    2    4   -0.35823255E-01 -0.24212836E-04
    3    4    0.24662182E-04 -0.36067811E-04
    4    4   -0.54727287E-01 -0.87402224E-07

    0    0    7
    1    1    0.16144864E-01  0.11690489E-06
    2    1   -0.10730539E-03  0.17454141E-05
    3    1    0.31396974E-02 -0.44202328E-05
    4    1   -0.38271560E-03 -0.26051496E-04
    1    2   -0.10789417E-03  0.70108034E-05
    2    2    0.50313632E-02 -0.77360854E-07
    3    2   -0.13723915E-04 -0.11675768E-04
    4    2   -0.35820638E-01  0.26690116E-04
    1    3   -0.22934392E-01 -0.28016838E-04
    2    3    0.22536525E-03  0.41151767E-05
    3    3    0.20035071E-01 -0.52562290E-07
    4    3   -0.53068102E-04 -0.60314434E-05
    1    4   -0.40274111E-03  0.21485997E-04
    2    4   -0.34434644E-01 -0.25093442E-04
    3    4   -0.52749307E-04 -0.58447262E-06
    4    4   -0.21081708E-01  0.83979221E-08

    0    0    8
    1    1    0.10618131E-01 -0.18727047E-06
    2    1   -0.11691198E-03 -0.10300270E-04
    3    1   -0.22934336E-01  0.27990964E-04
    4    1   -0.40114448E-03  0.59576188E-06
    1    2   -0.11587735E-03 -0.47033560E-05
    2    2   -0.15920548E-02  0.11425591E-06
    3    2    0.22557262E-03 -0.74345755E-05
    4    2   -0.34435701E-01  0.23777022E-04
    1    3    0.37685704E-02  0.45022152E-05
    2    3   -0.44253380E-04  0.36501658E-05
    3    3    0.14224557E-01  0.24725751E-07
    4    3    0.43162120E-05  0.20602542E-04
    1    4    0.16515998E-03  0.93753673E-05
    2    4    0.17430804E-01  0.11289881E-04
    3    4    0.15920747E-05  0.22896768E-04
    4    4    0.26225098E-01  0.56870014E-07

    0    0    9
    1    1   -0.12250378E-01 -0.35569022E-07
    2    1    0.76557335E-04  0.39173827E-06
    3    1    0.37685603E-02 -0.44133943E-05
    4    1    0.16719013E-03  0.17069907E-04
    1    2    0.76746962E-04 -0.33337177E-05
    2    2   -0.40036445E-02  0.21174458E-07
    3    2   -0.44904727E-04  0.60455588E-05
    4    2    0.17428789E-01 -0.13471930E-04
    1    3    0.12835635E-01  0.15712435E-04
    2    3   -0.12378780E-03 -0.40380374E-05
    3    3   -0.15684105E-01  0.31099937E-07
    4    3    0.32201717E-04  0.10826521E-04
    1    4    0.36121804E-03 -0.15300732E-04
    2    4    0.29778804E-01  0.21418730E-04
    3    4    0.31094852E-04  0.72788356E-05
    4    4    0.15741057E-01 -0.66388516E-08

    0    0   10
    1    1   -0.32600464E-02  0.12368411E-06
    2    1    0.23471200E-04  0.55140905E-05
    3    1    0.12835600E-01 -0.15745868E-04
    4    1    0.36032507E-03  0.29560027E-05
    1    2    0.22776238E-04  0.44213420E-05
    2    2   -0.28839619E-03 -0.75067530E-07
    3    2   -0.12365253E-03  0.23477226E-05
    4    2    0.29779236E-01 -0.20830727E-04
    1    3   -0.56229254E-02 -0.68616228E-05
    2    3    0.59311122E-04  0.57182762E-06
    3    3   -0.44074798E-02 -0.18114924E-07
    4    3   -0.18993533E-04 -0.14751631E-04
    1    4   -0.48857425E-04 -0.92153689E-05
    2    4   -0.72225299E-02 -0.41919923E-05
    3    4   -0.17095768E-04 -0.16285718E-04
    4    4   -0.13467918E-01 -0.36720251E-07

    0    0   11
    1    1    0.80911995E-02 -0.39662751E-08
    2    1   -0.43980243E-04 -0.11021485E-05
    3    1   -0.56229262E-02  0.68610337E-05
    4    1   -0.50487442E-04 -0.11409704E-04
    1    2   -0.43975374E-04  0.10433005E-05
    2    2    0.30622192E-02  0.91742833E-08
    3    2    0.59452124E-04 -0.25144933E-05
    4    2   -0.72208613E-02  0.60906630E-05
    1    3   -0.60154687E-02 -0.73453619E-05
    2    3    0.55382036E-04  0.30672554E-05
    3    3    0.10489666E-01 -0.21515304E-07
    4    3   -0.15796848E-04 -0.13242857E-04
    1    4   -0.32818892E-03  0.11121033E-04
    2    4   -0.26093501E-01 -0.18579405E-04
    3    4   -0.14311731E-04 -0.10997730E-04
    4    4   -0.11703004E-01  0.41764037E-08

    0    0   12
    1    1   -0.19882543E-03 -0.71463553E-07
    2    1    0.20873757E-04 -0.23910249E-05
    3    1   -0.60154448E-02  0.73937639E-05
    4    1   -0.32778842E-03 -0.51923179E-05
    1    2    0.21282341E-04 -0.34352566E-05
    2    2    0.12272722E-02  0.41085486E-07
    3    2    0.55155545E-04  0.15241231E-06
    4    2   -0.26093556E-01  0.18461628E-04
    1    3    0.46493127E-02  0.56902433E-05
    2    3   -0.47536723E-04 -0.23749762E-05
    3    3   -0.25248574E-03  0.14598912E-07
    4    3    0.24243307E-04  0.10906964E-04
    1    4   -0.21735681E-04  0.89697542E-05
    2    4    0.53921035E-03 -0.44397554E-06
    3    4    0.22832521E-04  0.12133572E-04
    4    4    0.68028694E-02  0.21547757E-07

    0    0   13
    1    1   -0.42686268E-02  0.14775960E-07
    2    1    0.13885606E-04  0.78307689E-06
    3    1    0.46493153E-02 -0.57387867E-05
    4    1   -0.20408640E-04  0.77439555E-05
    1    2    0.13825494E-04  0.89351115E-07
    2    2   -0.22527372E-02 -0.17686201E-07
    3    2   -0.47390705E-04  0.78246738E-07
    4    2    0.53777604E-03 -0.12196773E-05
    1    3    0.19454808E-02  0.23414875E-05
    2    3   -0.15050886E-04 -0.18227279E-05
    3    3   -0.55416044E-02  0.16575729E-07
    4    3    0.28942028E-05  0.14021718E-04
    1    4    0.29576924E-03 -0.76271569E-05
    2    4    0.22929522E-01  0.16152556E-04
    3    4    0.12367975E-05  0.12744498E-04
    4    4    0.84832562E-02 -0.14251266E-09

    0    0   14
    1    1    0.10490744E-02  0.31991997E-07
    2    1   -0.34006671E-04  0.49515671E-06
    3    1    0.19454670E-02 -0.23816164E-05
    4    1    0.29574907E-03  0.69418201E-05
    1    2   -0.34197320E-04  0.21742820E-05
    2    2   -0.17445500E-02 -0.14890241E-07
    3    2   -0.14856144E-04 -0.96167852E-06
    4    2    0.22929301E-01 -0.16384665E-04
    1    3   -0.24706596E-02 -0.30132344E-05
    2    3    0.24354470E-04  0.26452810E-05
    3    3    0.14215427E-02 -0.11571365E-07
    4    3   -0.22251952E-04 -0.79581631E-05
    1    4    0.69987806E-04 -0.87891821E-05
    2    4    0.43492252E-02  0.38071227E-05
    3    4   -0.21205600E-04 -0.91932513E-05
    4    4   -0.30387441E-02 -0.10303987E-07

    0    0   15
    1    1    0.14982554E-02 -0.81344667E-08
    2    1    0.59990346E-05 -0.43756503E-07
    3    1   -0.24706619E-02  0.30795188E-05
    4    1    0.68874351E-04 -0.51723772E-05
    1    2    0.60226700E-05 -0.31164587E-06
    2    2    0.15442852E-02  0.12801312E-07
    3    2    0.24090614E-04  0.13901722E-05
    4    2    0.43504691E-02 -0.23444801E-05
    1    3   -0.25711320E-03 -0.27094315E-06
    2    3   -0.72082788E-06  0.95241798E-06
    3    3    0.19116137E-02 -0.12811081E-07
    4    3    0.45427562E-05 -0.14014843E-04
    1    4   -0.26038216E-03  0.46920908E-05
    2    4   -0.20045059E-01 -0.13976982E-04
    3    4    0.62411782E-05 -0.13410070E-04
    4    4   -0.57673669E-02 -0.53541191E-08

    0    0   16
    1    1   -0.44072717E-03 -0.87814950E-08
    2    1    0.29715657E-04  0.33920414E-06
    3    1   -0.25710714E-03  0.29734196E-06
    4    1   -0.26067135E-03 -0.81234831E-05
    1    2    0.29771932E-04 -0.11403666E-05
    2    2    0.20368517E-02  0.46013549E-09
    3    2   -0.84861996E-06  0.91087062E-06
    4    2   -0.20044623E-01  0.14488425E-04
    1    3    0.42616658E-03  0.49929716E-06
    2    3   -0.31811309E-05 -0.20099993E-05
    3    3   -0.62292891E-03  0.82684243E-08
    4    3    0.16280311E-04  0.50513461E-05
    1    4   -0.10872413E-03  0.89221469E-05
    2    4   -0.82311273E-02 -0.64821580E-05
    3    4    0.15566264E-04  0.64542955E-05
    4    4    0.88525844E-03  0.34290520E-08

    0    0   17
    1    1   -0.11523806E-03 -0.54766503E-08
    2    1   -0.11784720E-04 -0.64078231E-06
    3    1    0.42617001E-03 -0.55914829E-06
    4    1   -0.10776854E-03  0.33705920E-05
    1    2   -0.11739717E-04 -0.90062136E-07
    2    2   -0.90176426E-03 -0.23610987E-08
    3    2   -0.29209033E-05 -0.18429345E-05
    4    2   -0.82322038E-02  0.52023944E-05
    1    3    0.18886316E-03  0.19896421E-06
    2    3   -0.15893679E-06 -0.69571483E-06
    3    3   -0.10393787E-03  0.97481926E-08
    4    3   -0.58845399E-05  0.13562131E-04
    1    4    0.22224470E-03 -0.21228750E-05
    2    4    0.17274871E-01  0.11893982E-04
    3    4   -0.75668195E-05  0.13343809E-04
    4    4    0.33532607E-02  0.10714954E-07

    0    0   18
    1    1   -0.50054815E-03 -0.45983779E-10
    2    1   -0.20792892E-04 -0.49824387E-06
    3    1    0.18886388E-03 -0.21814152E-06
    4    1    0.22276634E-03  0.88790054E-05
    1    2   -0.20796771E-04  0.55646230E-06
    2    2   -0.21876819E-02  0.30523433E-08
    3    2   -0.64895215E-07 -0.63282313E-06
    4    2    0.17274260E-01 -0.12631001E-04
    1    3    0.65708861E-03  0.82503426E-06
    2    3   -0.74240675E-05  0.11779007E-05
    3    3   -0.63352032E-03 -0.45251244E-08
    4    3   -0.10620946E-04 -0.21269681E-05
    1    4    0.14567408E-03 -0.91265538E-05
    2    4    0.11524571E-01  0.87355548E-05
    3    4   -0.10256143E-04 -0.37073056E-05
    4    4    0.23767070E-03 -0.45610998E-09

    0    0   19
    1    1   -0.11085313E-03  0.15284287E-07
    2    1    0.55157501E-05  0.89212236E-06
    3    1    0.65708467E-03 -0.78290301E-06
    4    1    0.14483995E-03 -0.17729464E-05
    1    2    0.54199072E-05  0.63426476E-06
    2    2    0.29649845E-03 -0.54034246E-08
    3    2   -0.76144038E-05  0.15663739E-05
    4    2    0.11525495E-01 -0.76243481E-05
    1    3   -0.66602678E-03 -0.79481765E-06
    2    3    0.65785419E-05  0.10169738E-05
    3    3   -0.16470530E-03 -0.82154041E-08
    4    3    0.20154643E-05 -0.13201010E-04
    1    4   -0.18298734E-03 -0.14965684E-07
    2    4   -0.14481866E-01 -0.98122316E-05
    3    4    0.36722707E-05 -0.13154107E-04
    4    4   -0.11008873E-02 -0.13926420E-07

    0    0   20
    1    1    0.92121676E-03 -0.73677180E-16
    2    1    0.16618252E-04  0.42821966E-06
    3    1   -0.66603045E-03  0.82017672E-06
    4    1   -0.18368658E-03 -0.91777553E-05
    1    2    0.16618252E-04 -0.42821966E-06
    2    2    0.22345519E-02  0.15284801E-15
    3    2    0.64594635E-05  0.65598081E-06
    4    2   -0.14481095E-01  0.10746515E-04
    1    3   -0.66603045E-03 -0.82017672E-06
    2    3    0.64594635E-05 -0.65598081E-06
    3    3    0.11967131E-02 -0.14848428E-15
    4    3    0.81230613E-05 -0.82760531E-06
    1    4   -0.18368658E-03  0.91777553E-05
    2    4   -0.14481095E-01 -0.10746515E-04
    3    4    0.81230613E-05  0.82760531E-06
    4    4   -0.58713354E-03 -0.36495665E-15

    0    0  -20
    1    1    0.49864565E+00  0.31624572E-14  0.50033438E+00 -0.46254598E-14  0.27061686E-15 -0.17235251E-16
    2    1    0.28368198E-03  0.67436695E-05  0.11001468E-02  0.20588869E-04 -0.70323242E-07 -0.15045227E-05
    3    1   -0.14132120E-03  0.74948162E-05 -0.19982902E-04 -0.12480329E-06  0.53441535E-04 -0.14159522E-06
    4    1   -0.34877904E-02 -0.79846006E-04 -0.15579402E-01 -0.27851737E-03  0.99430585E-03  0.29383800E-04
    1    2    0.28368198E-03 -0.67436695E-05  0.11001468E-02 -0.20588869E-04  0.70323242E-07 -0.15045227E-05
    2    2    0.50000688E+00  0.21140084E-14  0.25517494E-04  0.27255633E-14 -0.38857806E-15 -0.17235468E-16
    3    2   -0.18772622E-03  0.42709604E-05 -0.73202455E-03  0.14614297E-04  0.41047421E-04  0.32659554E-05
    4    2    0.36382846E-04 -0.12915327E-05  0.15756315E-03 -0.59574386E-05  0.39568924E-01 -0.28691351E-04
    1    3   -0.14132120E-03 -0.74948162E-05 -0.19982902E-04  0.12480329E-06 -0.53441535E-04 -0.14159522E-06
    2    3   -0.18772622E-03 -0.42709604E-05 -0.73202455E-03 -0.14614297E-04 -0.41047421E-04  0.32659554E-05
    3    3    0.12727305E-02  0.18625016E-14  0.99948719E+00 -0.71327990E-14  0.12004286E-14 -0.52627231E-16
    4    3    0.54961408E-02  0.13299731E-03  0.24499250E-01  0.46839621E-03  0.46075476E-04 -0.69112182E-04
    1    4   -0.34877904E-02  0.79846006E-04 -0.15579402E-01  0.27851737E-03 -0.99430585E-03  0.29383800E-04
    2    4    0.36382846E-04  0.12915327E-05  0.15756315E-03  0.59574386E-05 -0.39568924E-01 -0.28691351E-04
    3    4    0.54961408E-02 -0.13299731E-03  0.24499250E-01 -0.46839621E-03 -0.46075476E-04 -0.69112182E-04
    4    4    0.49991733E+00  0.39880695E-15  0.99923733E+00 -0.25369869E-14  0.34694470E-15 -0.52625912E-16

    0    0  -19
    1    1   -0.18032150E+00  0.72276517E+00 -0.34020143E+00  0.12724483E+00  0.14742151E-10 -0.13197230E-10
    2    1   -0.11086143E-03 -0.35761536E-05 -0.34605697E-03 -0.62941842E-05  0.73167292E-04  0.49499810E-05
    3    1   -0.14134977E-03  0.72932527E-05 -0.20053430E-04 -0.21576989E-05 -0.52962502E-04  0.35337854E-06
    4    1   -0.34875684E-02 -0.81487040E-04 -0.15579073E-01 -0.27859051E-03 -0.10020162E-02 -0.99319676E-05
    1    2   -0.11072141E-03  0.16720093E-05 -0.34607653E-03  0.66751856E-05  0.72712868E-04  0.16914555E-05
    2    2   -0.33007601E+00  0.55521274E+00 -0.73450381E-01 -0.72083843E+00 -0.53536524E-11 -0.61826327E-11
    3    2   -0.18775837E-03  0.49238960E-05 -0.73202423E-03  0.14572551E-04 -0.41736226E-04  0.51070075E-05
    4    2    0.36260376E-04  0.99350622E-06  0.15677171E-03  0.40358849E-05 -0.38428638E-01  0.26705036E-04
    1    3    0.87063073E-04  0.14401318E-04  0.34878158E-04 -0.31270667E-05 -0.14067949E-01 -0.17531387E-04
    2    3    0.33143782E-03  0.84200849E-05  0.11488041E-02  0.22908358E-04  0.10536181E-03 -0.49664210E-05
    3    3   -0.77654617E-01  0.16755296E+00 -0.91058185E+00 -0.97657123E+00  0.15157185E-10 -0.14856591E-10
    4    3    0.54520704E-03  0.15809913E-04  0.22691155E-02  0.43173548E-04  0.93591917E-03  0.14397863E-04
    1    4    0.28372567E-02 -0.67009438E-04  0.12855120E-01 -0.22948166E-03 -0.11239487E-02  0.11698399E-04
    2    4   -0.29846073E-04  0.12503646E-05 -0.13014095E-03  0.49590098E-05 -0.44477144E-01 -0.31051456E-04
    3    4    0.54514372E-03 -0.10542715E-04  0.22695361E-02 -0.43912924E-04  0.93581169E-03 -0.21042536E-04
    4    4    0.33366818E+00 -0.15254046E+01 -0.16024342E+00 -0.16036555E+01  0.23561551E-09 -0.51975329E-10

    0    0  -18
    1    1   -0.44322407E+00 -0.76512414E+00 -0.44860884E-02 -0.11491175E+00 -0.87918986E-11 -0.17126507E-09
    2    1   -0.18817906E-03 -0.40085404E-05 -0.78877567E-03 -0.14903458E-04 -0.13363606E-03 -0.38001840E-05
    3    1    0.87067733E-04 -0.14401160E-04  0.34895627E-04  0.15723137E-05 -0.14027643E-01  0.17176697E-04
    4    1    0.28377271E-02  0.64091102E-04  0.12855280E-01  0.22961163E-03 -0.11310056E-02 -0.31386487E-04
    1    2   -0.18823126E-03  0.49483438E-05 -0.78875202E-03  0.14595133E-04 -0.13362934E-03  0.25852553E-05
    2    2   -0.19425524E-01 -0.74065282E+00  0.23056081E+00  0.74999939E+00  0.47412213E-11  0.38314316E-10
    3    2    0.33139618E-03 -0.77868027E-05  0.11487982E-02 -0.22917722E-04  0.10611213E-03 -0.10579977E-04
    4    2   -0.29986238E-04  0.14086711E-05 -0.13128774E-03  0.67965174E-05 -0.43456676E-01  0.31319904E-04
    1    3    0.15687907E-03 -0.52495771E-05  0.13812990E-04  0.18819248E-05 -0.56715992E-02 -0.67844685E-05
    2    3   -0.80246955E-04 -0.22472085E-05 -0.67895317E-04 -0.13500371E-05  0.93082796E-04  0.43004257E-05
    3    3    0.15377609E+00 -0.24471825E-01  0.79688883E+00  0.97552776E+00 -0.10584016E-10 -0.17230611E-09
    4    3   -0.55402398E-02 -0.13341072E-03 -0.24639697E-01 -0.47111491E-03  0.12827102E-03  0.70601002E-04
    1    4    0.41889683E-02 -0.96910392E-04  0.18467244E-01 -0.32996980E-03  0.82004792E-03 -0.22764360E-04
    2    4   -0.42846773E-04 -0.10948520E-05 -0.18390190E-03 -0.52158617E-05  0.29681713E-01  0.21622695E-04
    3    4   -0.55401225E-02  0.13487810E-03 -0.24640175E-01  0.47073791E-03  0.85798609E-04  0.66156260E-04
    4    4   -0.14044272E+01  0.20539693E+01 -0.92823171E+00  0.22084527E+01  0.71572186E-10  0.16580874E-08

    0    0  -17
    1    1    0.72913971E+00  0.97822903E-01  0.23941731E+00 -0.21530937E-01 -0.55867561E-10  0.18555029E-09
    2    1    0.25091315E-03  0.64791209E-05  0.77221447E-03  0.14408452E-04  0.15068224E-04 -0.73940723E-05
    3    1    0.15692352E-03  0.54274465E-05  0.13907421E-04 -0.24468574E-06 -0.56003556E-02  0.67662679E-05
    4    1    0.41895011E-02  0.96675361E-04  0.18466521E-01  0.33033048E-03  0.80791222E-03  0.87500177E-05
    1    2    0.25084875E-03 -0.54075851E-05  0.77220806E-03 -0.14547524E-04  0.16237197E-04 -0.82267840E-05
    2    2    0.20536194E+00  0.47083934E+00 -0.38217076E+00 -0.48341324E-01  0.44211594E-10  0.13952849E-09
    3    2   -0.80223191E-04  0.16387069E-05 -0.67891015E-04  0.14150067E-05  0.91444019E-04 -0.19319977E-06
    4    2   -0.42679438E-04 -0.78754753E-06 -0.18365660E-03 -0.27523207E-05  0.34263385E-01 -0.23697491E-04
    1    3    0.35853827E-04 -0.10838711E-04 -0.64414564E-04  0.19674738E-05  0.27988664E-01  0.34552090E-04
    2    3   -0.24084262E-03 -0.62041532E-05 -0.84223133E-03 -0.16794883E-04 -0.25532171E-03 -0.41612445E-06
    3    3    0.17286263E-01 -0.37301658E+00 -0.90696768E+00  0.64000631E-01 -0.54446343E-10  0.22774947E-09
    4    3   -0.16260541E-02 -0.41279741E-04 -0.68018401E-02 -0.13025538E-03 -0.86341449E-03 -0.74656411E-05
    1    4   -0.22439881E-02  0.53276583E-04 -0.10272786E-01  0.18314034E-03  0.11644888E-02 -0.14296670E-04
    2    4    0.22950369E-04 -0.15231519E-05  0.10232645E-03 -0.59528260E-05  0.49495928E-01  0.34642089E-04
    3    4   -0.16256078E-02  0.37337649E-04 -0.68028277E-02  0.13040915E-03 -0.86753535E-03  0.29964533E-04
    4    4    0.11665674E+01 -0.14501713E+01  0.72125110E+00 -0.16771580E+01 -0.80504074E-09  0.69367587E-09

    0    0  -16
    1    1   -0.40427220E+00  0.65716357E+00 -0.15466117E+00  0.11225610E+00  0.94120696E-09  0.16101851E-08
    2    1   -0.36364214E-04 -0.14108453E-05  0.55982882E-04  0.12008341E-05  0.17794563E-03  0.92809334E-05
    3    1    0.35820982E-04  0.10545453E-04 -0.64529773E-04 -0.14320538E-05  0.27585333E-01 -0.33753635E-04
    4    1   -0.22434032E-02 -0.50436943E-04 -0.10273165E-01 -0.18319161E-03  0.12284082E-02  0.29691903E-04
    1    2   -0.36279276E-04  0.27931296E-06  0.55951480E-04 -0.80668627E-06  0.17772547E-03  0.90373998E-06
    2    2   -0.69431033E-06  0.24303635E-06  0.55901817E+00 -0.76942013E+00 -0.11712497E-08 -0.15118312E-08
    3    2   -0.24079993E-03  0.55746283E-05 -0.84220987E-03  0.16789322E-04 -0.25296722E-03  0.12639624E-04
    4    2    0.23237199E-04 -0.15543023E-05  0.10329564E-03 -0.74063165E-05  0.47035523E-01 -0.33634516E-04
    1    3   -0.18031029E-03  0.14916304E-04 -0.96862195E-05 -0.30690819E-05  0.18002623E-02  0.18965232E-05
    2    3    0.27652688E-03  0.69476244E-05  0.64524333E-03  0.12913045E-04 -0.34061680E-04 -0.70472535E-05
    3    3   -0.40502696E+00  0.65716401E+00  0.12135810E+01 -0.12449484E+01  0.88041647E-10  0.15639870E-08
    4    3    0.56432270E-02  0.13582082E-03  0.24978430E-01  0.47715845E-03 -0.33597787E-03 -0.69163304E-04
    1    4   -0.49090839E-02  0.11395970E-03 -0.21464157E-01  0.38336792E-03 -0.56692477E-03  0.16063903E-04
    2    4    0.49396298E-04  0.82134624E-06  0.21184864E-03  0.43127297E-05 -0.17517785E-01 -0.12968199E-04
    3    4    0.56438165E-02 -0.13807475E-03  0.24978870E-01 -0.47703503E-03 -0.14893524E-03 -0.55782049E-04
    4    4   -0.65459712E+00  0.47553022E+00 -0.25076042E+00  0.76944351E+00 -0.21192044E-09 -0.54688518E-08

    0    0  -15
    1    1   -0.14558764E+00 -0.85355311E+00 -0.20739674E+00  0.33633684E-06  0.92476488E-09  0.57987707E-09
    2    1   -0.18843730E-03 -0.44028133E-05 -0.53654077E-03 -0.10192633E-04 -0.11443066E-03  0.47954338E-05
    3    1   -0.18033522E-03 -0.14870336E-04 -0.97240685E-05  0.23896381E-05  0.16910651E-02 -0.23330000E-05
    4    1   -0.49088014E-02 -0.11324127E-03 -0.21463018E-01 -0.38345305E-03 -0.54784211E-03 -0.64786504E-05
    1    2   -0.18844174E-03  0.45083700E-05 -0.53649098E-03  0.99757372E-05 -0.11599680E-03  0.10122545E-04
    2    2   -0.50000439E+00 -0.29289337E+00 -0.85356599E+00  0.10606598E+01  0.52326600E-08 -0.29818131E-08
    3    2    0.27649013E-03 -0.64982521E-05  0.64522603E-03 -0.12955605E-04 -0.30678192E-04 -0.53398392E-05
    4    2    0.49317246E-04  0.58287837E-06  0.21156920E-03  0.14693790E-05 -0.29712662E-01  0.20478629E-04
    1    3   -0.23156146E-03 -0.19046717E-05  0.10951612E-03  0.62149141E-06 -0.31983981E-01 -0.39265059E-04
    2    3   -0.48415945E-04 -0.86007869E-06 -0.79560122E-04 -0.15839309E-05  0.29860291E-03  0.67721862E-05
    3    3    0.64455470E+00 -0.56066009E+00 -0.13529811E+01  0.15606592E+01  0.65138886E-09  0.50119680E-09
    4    3    0.26976540E-02  0.67590531E-04  0.11400172E-01  0.21760828E-03  0.73148391E-03 -0.26501973E-05
    1    4    0.16596239E-02 -0.39893020E-04  0.76446244E-02 -0.13602452E-03 -0.11417713E-02  0.18830463E-04
    2    4   -0.15521263E-04  0.18470887E-05 -0.71374064E-04  0.70391415E-05 -0.49518679E-01 -0.34720174E-04
    3    4    0.26978063E-02 -0.63629999E-04  0.11401954E-01 -0.21825096E-03  0.75334578E-03 -0.40519450E-04
    4    4    0.91416834E+00  0.54197166E-05  0.56025946E+00 -0.35354446E+00  0.83109910E-09 -0.16506976E-07

    0    0  -14
    1    1    0.28067779E+00  0.41651149E+00  0.59859902E+00 -0.27712656E+00  0.98006665E-10  0.97281875E-10
    2    1    0.23024871E-03  0.56009106E-05  0.57907786E-03  0.10815836E-04 -0.11300589E-03 -0.10418472E-04
    3    1   -0.23151658E-03  0.23699950E-05  0.10967540E-03 -0.44154299E-06 -0.31129515E-01  0.38303992E-04
    4    1    0.16592250E-02  0.35818570E-04  0.76458922E-02  0.13685693E-03 -0.13141610E-02 -0.27031301E-04
    1    2    0.23021899E-03 -0.53278121E-05  0.57910375E-03 -0.11007259E-04 -0.11284261E-03 -0.52037966E-05
    2    2    0.93164114E+00  0.21040382E+00  0.11816499E+01 -0.75000018E+00  0.11169901E-09 -0.70945361E-09
    3    2   -0.48472491E-04  0.15224292E-05 -0.79606276E-04  0.16204929E-05  0.29201105E-03 -0.84361336E-05
    4    2   -0.15823915E-04  0.18336803E-05 -0.72406586E-04  0.82704175E-05 -0.50400254E-01  0.35762416E-04
    1    3    0.25650098E-03 -0.12934641E-04 -0.80207953E-06  0.24139302E-05  0.47011652E-02  0.60583821E-05
    2    3   -0.21545180E-03 -0.53781739E-05 -0.42619661E-03 -0.85638757E-05 -0.57499217E-04  0.34852524E-05
    3    3   -0.40298377E+00  0.20610734E+00  0.99192188E+00 -0.79389310E+00  0.80452938E-10  0.12054012E-09
    4    3   -0.57381909E-02 -0.13596908E-03 -0.25299248E-01 -0.48415183E-03  0.57621120E-03  0.69720131E-04
    1    4    0.56273853E-02 -0.13091228E-03  0.24564956E-01 -0.43854744E-03  0.29668988E-03 -0.10433830E-04
    2    4   -0.56775672E-04 -0.41374934E-06 -0.24291562E-03 -0.33476702E-05  0.47404370E-02  0.39475839E-05
    3    4   -0.57387806E-02  0.14200947E-03 -0.25298728E-01  0.48267121E-03  0.23016198E-03  0.39919650E-04
    4    4   -0.84541367E+00  0.19676458E+00 -0.55089561E+00  0.60126328E+00  0.20071117E-09 -0.55014378E-08

    0    0  -13
    1    1    0.22654706E+00  0.18128522E+00 -0.77987892E+00  0.46706658E+00  0.14706946E-09 -0.13536558E-09
    2    1   -0.87751579E-04 -0.24474846E-05 -0.40020836E-03 -0.72623599E-05  0.13146646E-03 -0.42575614E-06
    3    1    0.25648390E-03  0.12745016E-04 -0.86457363E-06 -0.23790290E-05  0.46432831E-02 -0.52298994E-05
    4    1    0.56268120E-02  0.12837303E-03  0.24564266E-01  0.43928477E-03  0.25649244E-03 -0.35781845E-06
    1    2   -0.87711112E-04  0.17231702E-05 -0.40028320E-03  0.76614810E-05  0.13302732E-03 -0.63275751E-05
    2    2   -0.94848662E+00  0.11728632E+00 -0.11922026E+01  0.30521330E+00 -0.30734196E-10  0.61026060E-09
    3    2   -0.21540808E-03  0.50826935E-05 -0.42617481E-03  0.86063887E-05 -0.59379795E-04  0.61695783E-05
    4    2   -0.56709121E-04 -0.21239483E-06 -0.24256227E-03  0.21325493E-06  0.24741764E-01 -0.16954635E-04
    1    3    0.47945898E-03  0.15818581E-04 -0.17012035E-03 -0.25230600E-05  0.23041614E-01  0.28062225E-04
    2    3    0.35536924E-03  0.82661505E-05  0.10607362E-02  0.21205546E-04 -0.20039713E-03 -0.85136822E-05
    3    3   -0.22789500E+00  0.63999604E-01 -0.22557727E+00 -0.37301522E+00  0.65553202E-10 -0.13073453E-09
    4    3   -0.38319153E-02 -0.93818324E-04 -0.16366950E-01 -0.31290623E-03 -0.58740682E-03  0.16999513E-04
    1    4   -0.97543219E-03  0.24588979E-04 -0.45812071E-02  0.81127245E-04  0.10582297E-02 -0.20599851E-04
    2    4    0.66769242E-05 -0.21263460E-05  0.34991312E-04 -0.86172239E-05  0.44009838E-01  0.30879506E-04
    3    4   -0.38324474E-02  0.91829186E-04 -0.16368737E-01  0.31300616E-03 -0.64427226E-03  0.48658130E-04
    4    4   -0.70689060E-01 -0.49911790E+00 -0.29716311E+00 -0.94462137E+00 -0.14535885E-08 -0.99509731E-09

    0    0  -12
    1    1   -0.96240701E+00 -0.47552817E+00  0.71309863E+00 -0.29389206E+00 -0.31170389E-10  0.10537790E-10
    2    1   -0.20415565E-03 -0.41354440E-05 -0.50085610E-03 -0.96275308E-05  0.56932892E-05  0.58550359E-05
    3    1    0.47942930E-03 -0.15951846E-04 -0.17022521E-03  0.33538142E-05  0.22130305E-01 -0.27651250E-04
    4    1   -0.97535401E-03 -0.20229899E-04 -0.45830043E-02 -0.82163673E-04  0.14033686E-02  0.23802133E-04
    1    2   -0.20424697E-03  0.56005824E-05 -0.50086660E-03  0.93624579E-05  0.58813448E-05  0.56531461E-05
    2    2    0.49999450E+00 -0.36327153E+00  0.55900266E+00 -0.18163661E+00  0.13907389E-09  0.88242305E-09
    3    2    0.35543632E-03 -0.91300264E-05  0.10608002E-02 -0.21229481E-04 -0.19363715E-03  0.18890168E-05
    4    2    0.70027278E-05 -0.21163761E-05  0.36156902E-04 -0.91161472E-05  0.53756890E-01 -0.37868675E-04
    1    3   -0.41223715E-03 -0.43168663E-05  0.21160008E-04  0.78494647E-06 -0.41013923E-02 -0.49554661E-05
    2    3   -0.18120397E-03 -0.43892928E-05 -0.83250753E-03 -0.16527117E-04  0.71386528E-04  0.27831925E-05
    3    3    0.77138752E+00 -0.11225700E+00 -0.46328135E+00  0.10633140E+01 -0.29487726E-10  0.89114098E-11
    4    3    0.57426585E-02  0.13469389E-03  0.25349985E-01  0.48558581E-03 -0.81765479E-03 -0.71888540E-04
    1    4   -0.63808371E-02  0.14919561E-03 -0.27962576E-01  0.49893612E-03 -0.91246367E-04  0.86731141E-05
    2    4    0.65458694E-04  0.28040908E-07  0.27984796E-03  0.19198564E-05  0.67986374E-02  0.41547610E-05
    3    4    0.57428686E-02 -0.14380681E-03  0.25348451E-01 -0.48296896E-03 -0.28479542E-03 -0.25130919E-04
    4    4    0.28640214E+00  0.29388469E+00  0.44035067E+00  0.76942663E+00 -0.15798009E-08 -0.38442884E-08

    0    0  -11
    1    1    0.12988448E+01  0.46589377E+00 -0.56115574E+00 -0.28838088E+00 -0.54139321E-11  0.33163354E-10
    2    1    0.45196469E-03  0.10752747E-04  0.16335237E-02  0.30481554E-04 -0.35614090E-04 -0.11683586E-05
    3    1   -0.41219516E-03  0.44875185E-05  0.21289315E-04 -0.31666909E-06 -0.39609289E-02  0.46715505E-05
    4    1   -0.63804402E-02 -0.14538866E-03 -0.27962808E-01 -0.50013562E-03  0.29250147E-04  0.83859858E-05
    1    2    0.45196390E-03 -0.10724533E-04  0.16335655E-02 -0.30682389E-04 -0.35955755E-04  0.18237754E-06
    2    2    0.12065369E+00  0.29834076E+00  0.57115646E+00  0.36728564E+00  0.15299223E-10 -0.66122960E-08
    3    2   -0.18123698E-03  0.45459294E-05 -0.83250955E-03  0.16473252E-04  0.70651809E-04 -0.55114733E-06
    4    2    0.65419662E-04 -0.21458873E-06  0.27942084E-03 -0.19937751E-05 -0.19228860E-01  0.13113549E-04
    1    3   -0.75076837E-03 -0.18658319E-04  0.24418589E-03  0.21075406E-05 -0.76252434E-02 -0.91602466E-05
    2    3   -0.41136099E-03 -0.95076865E-05 -0.12766671E-02 -0.25596765E-04  0.31159116E-04  0.34043077E-05
    3    3   -0.83320402E+00  0.16755264E+00  0.67728840E+00 -0.97657138E+00 -0.94020841E-11  0.47697190E-10
    4    3    0.52004521E-02  0.12696997E-03  0.22370287E-01  0.42779582E-03  0.45094627E-03 -0.30839518E-04
    1    4    0.23970441E-04 -0.31431956E-05  0.48158382E-03 -0.75352355E-05 -0.89559230E-03  0.18356479E-04
    2    4    0.44866074E-05  0.25325976E-05  0.10791439E-04  0.10481727E-04 -0.32784553E-01 -0.22932434E-04
    3    4    0.52004055E-02 -0.12499504E-03  0.22371102E-01 -0.42761296E-03  0.57975491E-03 -0.52201620E-04
    4    4    0.52742652E+00  0.40736734E+00  0.44849905E+00 -0.86464486E-01  0.25947896E-08 -0.13781422E-07

    0    0  -10
    1    1   -0.99929693E+00 -0.50000037E+00  0.49987612E+00  0.99999865E+00  0.50568291E-11 -0.17279348E-10
    2    1   -0.17771685E-03 -0.57600536E-05 -0.73199644E-03 -0.13176356E-04  0.46545223E-04  0.14646138E-05
    3    1   -0.75078870E-03  0.18063865E-04  0.24413009E-03 -0.47401603E-05 -0.72923608E-02  0.96222070E-05
    4    1    0.23626522E-04 -0.24612530E-05  0.48275342E-03  0.90433278E-05 -0.14793319E-02 -0.24132874E-04
    1    2   -0.17751188E-03  0.25266275E-05 -0.73202944E-03  0.13892088E-04  0.45022776E-04 -0.61744329E-06
    2    2   -0.50000245E+00  0.62341029E-06 -0.15000111E+01 -0.49999781E+00 -0.29015930E-09 -0.27297955E-08
    3    2   -0.41140821E-03  0.10666090E-04 -0.12767073E-02  0.25591250E-04  0.30893507E-04  0.13391446E-05
    4    2    0.41457356E-05  0.25263704E-05  0.92576145E-05  0.10352545E-04 -0.57502751E-01  0.40359368E-04
    1    3    0.64387120E-03  0.32939429E-04 -0.50924342E-04 -0.47737200E-05 -0.77143901E-02 -0.10252798E-04
    2    3    0.82235666E-03  0.20044793E-04  0.28534182E-02  0.56871493E-04  0.40678578E-04 -0.60042808E-05
    3    3    0.49859527E+00 -0.49999991E+00 -0.49941164E+00  0.49999986E+00  0.44401418E-11 -0.57001001E-11
    4    3   -0.56019561E-02 -0.12858952E-03 -0.24971044E-01 -0.47873272E-03  0.10105168E-02  0.77446356E-04
    1    4    0.73111383E-02 -0.17191334E-03  0.32228141E-01 -0.57448279E-03  0.12942799E-04 -0.70941628E-05
    2    4   -0.76640018E-04  0.47203129E-06 -0.32714517E-03 -0.19770814E-06 -0.15102086E-01 -0.99285565E-05
    3    4   -0.56029659E-02  0.14297717E-03 -0.24970201E-01  0.47485055E-03  0.25929433E-03  0.11306671E-04
    4    4   -0.49994637E+00 -0.10000020E+01 -0.49949728E+00 -0.49999534E+00  0.35672532E-08 -0.10001622E-07

    0    0   -9
    1    1    0.36921526E+00  0.77491174E+00 -0.51833851E+00 -0.14064114E+01  0.28846799E-11  0.31260715E-11
    2    1   -0.66214045E-03 -0.14564835E-04 -0.23833594E-02 -0.44950119E-04 -0.11342458E-03 -0.19914006E-05
    3    1    0.64385223E-03 -0.32567201E-04 -0.50999283E-04  0.60444490E-05 -0.72965375E-02  0.83249452E-05
    4    1    0.73103004E-02  0.16589763E-03  0.32227607E-01  0.57648649E-03 -0.28933885E-03 -0.17945149E-04
    1    2   -0.66230541E-03  0.16984129E-04 -0.23833587E-02  0.44442510E-04 -0.11693051E-03  0.32873463E-05
    2    2    0.41818230E+00 -0.20165942E+00  0.15065074E+01  0.36728483E+00 -0.29462329E-09  0.12203244E-10
    3    2    0.82239219E-03 -0.20240017E-04  0.28534259E-02 -0.56761045E-04  0.41025931E-04 -0.81517801E-05
    4    2   -0.76681358E-04  0.83975457E-06 -0.32710622E-03  0.42892194E-05  0.12839193E-01 -0.86713515E-05
    1    3    0.10359865E-02 -0.18626060E-05 -0.33565471E-03  0.32319824E-05 -0.33211716E-02 -0.36570525E-05
    2    3   -0.51980753E-04 -0.19528365E-05 -0.92759440E-04 -0.16182214E-05  0.88623589E-04  0.54759199E-05
    3    3   -0.19739911E+00  0.97657044E+00  0.35310204E+00 -0.16755048E+00  0.49643276E-12  0.20590422E-10
    4    3   -0.71198620E-02 -0.17332208E-03 -0.30642577E-01 -0.58553277E-03 -0.30712286E-03  0.46699406E-04
    1    4    0.14312182E-02 -0.29656202E-04  0.55515066E-02 -0.10054796E-03  0.62188269E-03 -0.66490611E-05
    2    4   -0.19823558E-04 -0.29845978E-05 -0.72777015E-04 -0.12999506E-04  0.15811025E-01  0.10850268E-04
    3    4   -0.71202647E-02  0.17171012E-03 -0.30644736E-01  0.58569971E-03 -0.56399320E-03  0.42703576E-04
    4    4   -0.41561452E+00  0.93762260E+00 -0.33648478E+00  0.44379096E+00 -0.40522472E-08 -0.67181029E-08

    0    0   -8
    1    1    0.15019644E+00 -0.10633132E+01  0.40572466E+00  0.12449508E+01 -0.16365539E-10 -0.31098265E-10
    2    1    0.93250236E-03  0.23902004E-04  0.31739970E-02  0.58826790E-04  0.26540537E-05 -0.66639509E-05
    3    1    0.10360851E-02  0.34648086E-05 -0.33538483E-03  0.30105023E-05 -0.27753514E-02  0.32699259E-05
    4    1    0.14314054E-02  0.37212881E-04  0.55487819E-02  0.98295752E-04  0.15206729E-02  0.22765870E-04
    1    2    0.93225286E-03 -0.20069193E-04  0.31740003E-02 -0.59611952E-04  0.93344518E-05 -0.70471998E-05
    2    2    0.18812153E-04 -0.75149562E-06 -0.55895353E+00 -0.18163830E+00  0.69955917E-09  0.34182969E-09
    3    2   -0.51938743E-04  0.44679087E-06 -0.92701289E-04  0.16226637E-05  0.78321035E-04  0.15949172E-05
    4    2   -0.19483749E-04 -0.29363536E-05 -0.71063232E-04 -0.11891992E-04  0.62405224E-01 -0.43724879E-04
    1    3   -0.91423956E-03 -0.60750545E-04  0.79908086E-04  0.81405145E-05  0.25297634E-01  0.32658894E-04
    2    3   -0.14369529E-02 -0.34961949E-04 -0.48069980E-02 -0.96011309E-04 -0.22025985E-03  0.30557383E-05
    3    3    0.16077967E+00 -0.10633136E+01 -0.46569165E+00  0.11225770E+00  0.13439737E-10 -0.49824832E-11
    4    3    0.53218733E-02  0.11888083E-03  0.24202058E-01  0.46536213E-03 -0.11340444E-02 -0.77242439E-04
    1    4   -0.87332626E-02  0.20628516E-03 -0.38596934E-01  0.68776010E-03 -0.10405849E-03  0.10605223E-04
    2    4    0.92394464E-04 -0.98943729E-06  0.39418816E-03 -0.22062028E-05  0.17892084E-01  0.11780338E-04
    3    4    0.53229671E-02 -0.13834749E-03  0.24199195E-01 -0.45910167E-03 -0.11252830E-03 -0.46713179E-05
    4    4   -0.95529975E-01 -0.29389590E+00 -0.25032416E+00  0.18165104E+00 -0.91111804E-08  0.34425513E-08

    0    0   -7
    1    1   -0.43407804E+00  0.99030037E+00  0.35068046E-01 -0.65097369E+00  0.48861705E-10  0.10499606E-08
    2    1    0.40628348E-03  0.65951084E-05  0.16491341E-02  0.31986116E-04  0.21245114E-03  0.76392266E-05
    3    1   -0.91430421E-03  0.59231166E-04  0.79729224E-04 -0.11978750E-04  0.23420595E-01 -0.27063319E-04
    4    1   -0.87319564E-02 -0.19679285E-03 -0.38598065E-01 -0.69150840E-03  0.55552088E-03  0.20038755E-04
    1    2    0.40672265E-03 -0.13040100E-04  0.16490044E-02 -0.30264255E-04  0.22287934E-03 -0.13921187E-05
    2    2   -0.41477406E+00  0.61728716E+00 -0.53430231E+00  0.30521633E+00  0.41026017E-08 -0.13101774E-08
    3    2   -0.14369642E-02  0.35402450E-04 -0.48069422E-02  0.95715548E-04 -0.21755579E-03  0.14053055E-04
    4    2    0.92571707E-04 -0.15525308E-05  0.39467340E-03 -0.74100746E-05 -0.47259239E-02  0.32165504E-05
    1    3   -0.13933537E-02  0.55422177E-04  0.46072382E-03 -0.13099159E-04  0.30574136E-02  0.17630871E-05
    2    3    0.12360676E-02  0.30926420E-04  0.36519503E-02  0.72444716E-04 -0.85422949E-04 -0.12054094E-04
    3    3   -0.10613077E+00  0.37301583E+00  0.55882318E+00 -0.64001788E-01 -0.96353932E-11 -0.25635674E-11
    4    3    0.10171103E-01  0.24773109E-03  0.43508257E-01  0.83277378E-03  0.95721779E-04 -0.57573004E-04
    1    4   -0.37800760E-02  0.81838956E-04 -0.15091357E-01  0.27247228E-03 -0.23691067E-03 -0.46636318E-05
    2    4    0.42898384E-04  0.38170981E-05  0.16604111E-03  0.16519193E-04  0.73615111E-02  0.55775130E-05
    3    4    0.10171690E-01 -0.24426116E-03  0.43509100E-01 -0.83208558E-03  0.60242697E-03 -0.27039512E-04
    4    4    0.16343853E+01 -0.33214342E+00  0.18602341E+01 -0.77763846E+00  0.62032240E-08  0.41620790E-08

    0    0   -6
    1    1    0.65420023E+00 -0.53454463E+00 -0.71882627E+00  0.86145475E-01 -0.68255037E-11  0.16841038E-09
    2    1   -0.19391429E-02 -0.46747050E-04 -0.64269914E-02 -0.12006318E-03 -0.10824724E-03  0.68847070E-05
    3    1   -0.13935093E-02 -0.57559224E-04  0.46029106E-03  0.54134237E-05  0.20339398E-02 -0.40474708E-05
    4    1   -0.37796209E-02 -0.92774111E-04 -0.15089229E-01 -0.27012538E-03 -0.15076401E-02 -0.26151431E-04
    1    2   -0.19390015E-02  0.44906769E-04 -0.64269374E-02  0.12015395E-03 -0.13023892E-03  0.12194832E-04
    2    2    0.56832333E+00 -0.13284375E+01  0.81822986E+00 -0.74999848E+00 -0.33737002E-07  0.13296604E-08
    3    2    0.12360324E-02 -0.29248925E-04  0.36519184E-02 -0.72440420E-04 -0.63822462E-04 -0.85319289E-05
    4    2    0.42522123E-04  0.36143918E-05  0.16386601E-03  0.14000566E-04 -0.70105968E-01  0.49272301E-04
    1    3    0.11365592E-02  0.68470776E-04 -0.79875372E-04 -0.54332633E-05 -0.37459730E-01 -0.48174577E-04
    2    3    0.15882522E-02  0.38473641E-04  0.53596897E-02  0.10734373E-03  0.34354936E-03  0.38914383E-05
    3    3   -0.41730206E+00  0.79389303E+00 -0.17899463E+00 -0.20610745E+00 -0.89140664E-10  0.37870859E-10
    4    3   -0.49913397E-02 -0.10685310E-03 -0.23383098E-01 -0.44850677E-03  0.11916128E-02  0.79100566E-04
    1    4    0.11344306E-01 -0.26985061E-03  0.49888808E-01 -0.88729329E-03  0.39543726E-03 -0.10285822E-04
    2    4   -0.11781255E-03  0.20555658E-05 -0.50250385E-03  0.62057009E-05 -0.11850056E-01 -0.73672127E-05
    3    4   -0.49923179E-02  0.13495497E-03 -0.23380412E-01  0.44096867E-03 -0.14088914E-03 -0.67447064E-05
    4    4   -0.84549010E+00  0.42127283E+00 -0.11393681E+01  0.82577532E+00  0.88010066E-07 -0.33829903E-08

    0    0   -5
    1    1   -0.85669773E+00  0.14645060E+00  0.12083019E+01  0.12542620E-04  0.83717866E-10  0.11099050E-10
    2    1    0.69728418E-03  0.21835891E-04  0.17763042E-02  0.31093348E-04 -0.19832431E-03 -0.10764897E-04
    3    1    0.11368044E-02 -0.64369485E-04 -0.79165590E-04  0.16719943E-04 -0.33720020E-01  0.38930953E-04
    4    1    0.11343323E-01  0.25451571E-03  0.49889896E-01  0.89257040E-03 -0.89774994E-03 -0.25423609E-04
    1    2    0.69652233E-03 -0.10368906E-04  0.17765522E-02 -0.34335700E-04 -0.21503675E-03 -0.40366872E-05
    2    2   -0.49999101E+00  0.17071046E+01 -0.14642637E+00  0.10606530E+01 -0.14876295E-07  0.69177127E-08
    3    2    0.15882092E-02 -0.39457631E-04  0.53595884E-02 -0.10677352E-03  0.34458755E-03 -0.13400858E-04
    4    2   -0.11824686E-03  0.28191752E-05 -0.50420038E-03  0.12524272E-04 -0.73768825E-02  0.49830554E-05
    1    3    0.20684813E-02 -0.15084509E-03 -0.67003694E-03  0.30261598E-04  0.55580529E-02  0.12149056E-04
    2    3   -0.33281803E-02 -0.81809081E-04 -0.99316563E-02 -0.19762131E-03 -0.48828087E-05  0.12258564E-04
    3    3    0.13641795E+01 -0.15606590E+01 -0.64959425E+00  0.56066370E+00  0.93366981E-12  0.20873199E-10
    4    3   -0.15675392E-01 -0.38200029E-03 -0.66423822E-01 -0.12698686E-02  0.25964755E-03  0.82374437E-04
    1    4    0.79838581E-02 -0.17573581E-03  0.32155256E-01 -0.57877228E-03 -0.21181147E-03  0.22746657E-04
    2    4   -0.83236535E-04 -0.50199625E-05 -0.33038715E-03 -0.21899167E-04 -0.39578790E-01 -0.28314056E-04
    3    4   -0.15675727E-01  0.37754626E-03 -0.66425293E-01  0.12692491E-02 -0.73593211E-03 -0.70593323E-05
    4    4   -0.19140409E+01  0.49266499E-05 -0.15590724E+01 -0.35355066E+00  0.41937868E-07 -0.15717709E-07

    0    0   -4
    1    1    0.69998911E+00 -0.29389530E+00 -0.95950942E+00  0.47552094E+00 -0.21055316E-10 -0.42766530E-10
    2    1    0.29806756E-02  0.68230417E-04  0.97663781E-02  0.18384659E-03  0.16635865E-03 -0.36735465E-05
    3    1    0.20686425E-02  0.15337659E-03 -0.66961696E-03 -0.20770884E-04  0.63701188E-02 -0.26748284E-05
    4    1    0.79837143E-02  0.19383321E-03  0.32151920E-01  0.57528695E-03  0.14420993E-02  0.21492332E-04
    1    2    0.29809417E-02 -0.72911006E-04  0.97660858E-02 -0.18182248E-03  0.22685084E-03 -0.11437905E-04
    2    2    0.50006472E+00 -0.15388409E+01 -0.55880735E+00 -0.76941852E+00 -0.14061607E-08 -0.66894484E-09
    3    2   -0.33281583E-02  0.80444616E-04 -0.99315719E-02  0.19742668E-03 -0.47524584E-04  0.14187390E-04
    4    2   -0.82761939E-04 -0.44916423E-05 -0.32769549E-03 -0.17446317E-04  0.84994317E-01 -0.60068182E-04
    1    3   -0.97086804E-03 -0.23264174E-04 -0.59098462E-04 -0.74616579E-05  0.35875216E-01  0.45813584E-04
    2    3   -0.54670968E-03 -0.12778418E-04 -0.22911979E-02 -0.47022454E-04 -0.31540960E-03 -0.85740955E-05
    3    3   -0.20025099E+01  0.12449488E+01  0.12069092E+01 -0.65716239E+00 -0.23108956E-10 -0.21823227E-10
    4    3    0.48339963E-02  0.95349053E-04  0.23435984E-01  0.44908084E-03 -0.11617758E-02 -0.69556473E-04
    1    4   -0.17215089E-01  0.41185920E-03 -0.74745947E-01  0.13276140E-02 -0.93977884E-03  0.20347699E-04
    2    4    0.16972398E-03 -0.44373218E-05  0.72389268E-03 -0.14647408E-04 -0.11230430E-01 -0.91376378E-05
    3    4    0.48354419E-02 -0.13839527E-03  0.23431264E-01 -0.43897883E-03  0.39745462E-03  0.11749639E-04
    4    4    0.19635786E+01 -0.47552290E+00  0.15595808E+01 -0.18161874E+00  0.27074934E-07  0.20219924E-08

    0    0   -3
    1    1    0.25641169E+00  0.90683383E+00 -0.26338840E+00 -0.11395843E+01 -0.99873339E-11 -0.34490590E-10
    2    1   -0.34607778E-02 -0.89871611E-04 -0.10423802E-01 -0.19121615E-03  0.10516638E-03  0.77350509E-05
    3    1   -0.97143241E-03  0.15643473E-04 -0.60775746E-04 -0.12792584E-04  0.31008431E-01 -0.35967034E-04
    4    1   -0.17213528E-01 -0.38237128E-03 -0.74748860E-01 -0.13358813E-02  0.14077754E-02  0.25709735E-04
    1    2   -0.34596196E-02  0.72221738E-04 -0.10424269E-01  0.19648627E-03  0.10684156E-03  0.90142584E-05
    2    2   -0.84214896E+00  0.97084288E+00  0.10853966E+00 -0.48329497E-01  0.49460350E-08 -0.33038750E-10
    3    2   -0.54657218E-03  0.14748633E-04 -0.22909290E-02  0.45866819E-04 -0.34480413E-03  0.70006253E-05
    4    2    0.17062432E-03 -0.53092232E-05  0.72756765E-03 -0.24432412E-04  0.31133164E-01 -0.21396053E-04
    1    3   -0.40070171E-02  0.32808740E-03  0.11426840E-02 -0.57289867E-04 -0.11914244E-01 -0.30287721E-04
    2    3    0.71423495E-02  0.17382098E-03  0.21254471E-01  0.42354280E-03  0.41976703E-04 -0.77567123E-05
    3    3    0.15218423E+01 -0.64000575E-01 -0.65304419E+00  0.37301455E+00 -0.76605527E-11 -0.58400836E-11
    4    3    0.28290927E-01  0.68792207E-03  0.11893199E+00  0.22724201E-02 -0.79608243E-03 -0.12560752E-03
    1    4   -0.18178646E-01  0.40368150E-03 -0.73996088E-01  0.13322976E-02  0.77231590E-03 -0.36809315E-04
    2    4    0.18221441E-03  0.74814963E-05  0.73941266E-03  0.33726373E-04  0.97257853E-01  0.68679653E-04
    3    4    0.28291699E-01 -0.68470786E-03  0.11893275E+00 -0.22721917E-02  0.10249236E-02  0.54907081E-04
    4    4    0.11235785E+01  0.61891904E+00  0.15675424E+01  0.39193547E+00 -0.93198378E-08  0.41043848E-08

    0    0   -2
    1    1   -0.19675107E+01 -0.13529011E+01  0.21175709E+01  0.14239548E+01  0.15771232E-10  0.17474759E-10
    2    1   -0.39215903E-02 -0.81964882E-04 -0.12630053E-01 -0.24171833E-03 -0.78080443E-04  0.30664244E-05
    3    1   -0.40070798E-02 -0.32878738E-03  0.11425980E-02  0.53674043E-04 -0.13572761E-01  0.88130334E-06
    4    1   -0.18178327E-01 -0.43846610E-03 -0.73991146E-01 -0.13244267E-02 -0.14746048E-02 -0.24994562E-04
    1    2   -0.39230021E-02  0.10488513E-03 -0.12629195E-01  0.23400677E-03 -0.25221951E-03  0.50491078E-05
    2    2    0.15193309E+01 -0.37738533E+00  0.17691340E+01  0.74998744E+00  0.21439784E-07  0.63086098E-10
    3    2    0.71423940E-02 -0.17453733E-03  0.21254317E-01 -0.42273328E-03  0.18358308E-03 -0.15670534E-04
    4    2    0.18136168E-03  0.64536481E-05  0.73485927E-03  0.23036598E-04 -0.12531033E+00  0.89372935E-04
    1    3   -0.38679678E-02 -0.19622782E-03  0.15053574E-02  0.65027493E-04 -0.22906442E-01 -0.18559253E-04
    2    3   -0.46283201E-02 -0.11541286E-03 -0.13471164E-01 -0.26237328E-03  0.15176645E-03  0.19409450E-05
    3    3    0.12483961E+00 -0.97552692E+00 -0.10960817E+01  0.24471865E-01  0.17430887E-10  0.17449892E-10
    4    3   -0.56724099E-02 -0.86476292E-04 -0.28312050E-01 -0.53844273E-03  0.90857433E-03  0.65609542E-04
    1    4    0.38784759E-01 -0.93987506E-03  0.16635720E+00 -0.29336808E-02  0.21443962E-02 -0.38866326E-04
    2    4   -0.34455474E-03  0.15818852E-04 -0.14708237E-02  0.56482801E-04  0.10051754E+00  0.72321870E-04
    3    4   -0.56741874E-02  0.18339933E-03 -0.28302094E-01  0.51607105E-03 -0.43794390E-03 -0.28817198E-04
    4    4   -0.14046565E+01 -0.43593422E+00 -0.18814305E+01 -0.28142729E+00 -0.37448004E-07 -0.68921227E-09

    0    0   -1
    1    1    0.36713354E+01  0.10318003E+01 -0.37918399E+01 -0.99073327E+00 -0.53344257E-10  0.23126065E-11
    2    1    0.14276949E-01  0.35921401E-03  0.44474227E-01  0.81566030E-03 -0.22116504E-03  0.85458326E-05
    3    1   -0.38665126E-02  0.21574204E-03  0.15098027E-02 -0.11876590E-04 -0.15970710E-01  0.28832609E-04
    4    1    0.38782288E-01  0.83831964E-03  0.16636811E+00  0.29600563E-02 -0.24921841E-02 -0.47851987E-04
    1    2    0.14273657E-01 -0.30739384E-03  0.44475857E-01 -0.83198747E-03  0.21225063E-03 -0.21771915E-04
    2    2   -0.22085057E+01  0.55202998E-01 -0.40034296E+01 -0.72087017E+00 -0.36249243E-06  0.38907220E-10
    3    2   -0.46285235E-02  0.10714697E-03 -0.13471949E-01  0.26620194E-03  0.22916913E-03  0.64208920E-05
    4    2   -0.34748337E-03  0.17039053E-04 -0.14837591E-02  0.75984288E-04 -0.11597847E+00  0.81679389E-04
    1    3   -0.23678679E-02 -0.13145629E-02  0.11176845E-02  0.25100474E-03 -0.29070222E-01  0.21947383E-03
    2    3   -0.29314626E-01 -0.71468941E-03 -0.87717753E-01 -0.17373009E-02  0.16158586E-02  0.29803774E-04
    3    3   -0.20204191E+01  0.97657272E+00  0.30829557E+01 -0.16755000E+00 -0.10681952E-10 -0.27940329E-10
    4    3   -0.91860519E-01 -0.21694856E-02 -0.38719890E+00 -0.73808193E-02  0.11209639E-02  0.35049298E-03
    1    4    0.10666406E+00 -0.24801080E-02  0.44680156E+00 -0.79344060E-02 -0.50475939E-02  0.16711058E-03
    2    4   -0.96216547E-03  0.69940845E-05 -0.40265062E-02  0.80141645E-05 -0.48739657E+00 -0.34457617E-03
    3    4   -0.91862910E-01  0.22767726E-02 -0.38718831E+00  0.73554500E-02 -0.11398874E-02 -0.28381909E-03
    4    4   -0.32993636E+01  0.18040981E+00 -0.28038127E+01  0.10218459E+00  0.36406808E-06 -0.38844332E-08

    0    0    0
    1    1    0.53542670E+01  0.00000000E+00 -0.54539319E+01  0.00000000E+00  0.62479370E+00  0.00000000E+00
    2    1    0.27509241E-01  0.64422975E-03  0.86337874E-01  0.16032608E-02 -0.13930078E-04 -0.63319439E-03
    3    1   -0.23668064E-02  0.13286752E-02  0.11208890E-02 -0.21175166E-03  0.48256959E-01  0.19722591E-03
    4    1    0.10666229E+00  0.24217582E-02  0.44680738E+00  0.79499243E-02  0.53364033E-02  0.11786886E-03
    1    2    0.27509241E-01 -0.64422975E-03  0.86337874E-01 -0.16032608E-02 -0.13930078E-04  0.63319439E-03
    2    2   -0.74994739E+01  0.00000000E+00 -0.49983614E+01  0.00000000E+00  0.62479801E+00  0.00000000E+00
    3    2   -0.29314782E-01  0.70895932E-03 -0.87718250E-01  0.17397134E-02 -0.18146638E-02  0.80613043E-04
    4    2   -0.96391246E-03  0.10743416E-04 -0.40339338E-02  0.63325616E-04  0.50174412E+00 -0.35792783E-03
    1    3   -0.23668064E-02 -0.13286752E-02  0.11208890E-02  0.21175166E-03  0.48256959E-01 -0.19722591E-03
    2    3   -0.29314782E-01 -0.70895932E-03 -0.87718250E-01 -0.17397134E-02 -0.18146638E-02 -0.80613043E-04
    3    3   -0.67940634E+01  0.00000000E+00  0.59356788E+01  0.00000000E+00  0.19077858E+01  0.00000000E+00
    4    3   -0.13990909E+00 -0.33877897E-02 -0.58512648E+00 -0.11142789E-01 -0.13381628E-03 -0.54772840E-03
    1    4    0.10666229E+00 -0.24217582E-02  0.44680738E+00 -0.79499243E-02  0.53364033E-02 -0.11786886E-03
    2    4   -0.96391246E-03 -0.10743416E-04 -0.40339338E-02 -0.63325616E-04  0.50174412E+00  0.35792783E-03
    3    4   -0.13990909E+00  0.33877897E-02 -0.58512648E+00  0.11142789E-01 -0.13381628E-03  0.54772840E-03
    4    4   -0.34995848E+01  0.00000000E+00 -0.39960653E+01  0.00000000E+00  0.19077453E+01  0.00000000E+00

    0    0    1
    1    1    0.36713354E+01 -0.10318003E+01 -0.37918399E+01  0.99073327E+00 -0.53344257E-10 -0.23126065E-11
    2    1    0.14273657E-01  0.30739384E-03  0.44475857E-01  0.83198747E-03  0.22043951E-03  0.15608128E-04
    3    1   -0.23678679E-02  0.13145629E-02  0.11176845E-02 -0.25100474E-03 -0.42213535E-01 -0.20648565E-03
    4    1    0.10666406E+00  0.24801080E-02  0.44680156E+00  0.79344060E-02 -0.52713775E-02 -0.16962148E-03
    1    2    0.14276949E-01 -0.35921401E-03  0.44474227E-01 -0.81566030E-03 -0.21469624E-03 -0.15192492E-04
    2    2   -0.22085057E+01 -0.55202998E-01 -0.40034296E+01  0.72087017E+00 -0.36249243E-06 -0.38907220E-10
    3    2   -0.29314626E-01  0.71468941E-03 -0.87717753E-01  0.17373009E-02  0.17576906E-02 -0.30715256E-04
    4    2   -0.96216547E-03 -0.69940845E-05 -0.40265062E-02 -0.80141645E-05 -0.50003161E+00  0.35355898E-03
    1    3   -0.38665126E-02 -0.21574204E-03  0.15098027E-02  0.11876590E-04 -0.29718596E-03 -0.97246192E-05
    2    3   -0.46285235E-02 -0.10714697E-03 -0.13471949E-01 -0.26620194E-03  0.76806151E-04 -0.68633849E-05
    3    3   -0.20204191E+01 -0.97657272E+00  0.30829557E+01  0.16755000E+00 -0.10681952E-10  0.27940329E-10
    4    3   -0.91862910E-01 -0.22767726E-02 -0.38718831E+00 -0.73554500E-02 -0.11372410E-02  0.29748283E-03
    1    4    0.38782288E-01 -0.83831964E-03  0.16636811E+00 -0.29600563E-02 -0.23954956E-02  0.45228910E-04
    2    4   -0.34748337E-03 -0.17039053E-04 -0.14837591E-02 -0.75984288E-04 -0.11179339E+00 -0.78605173E-04
    3    4   -0.91860519E-01  0.21694856E-02 -0.38719890E+00  0.73808193E-02  0.11650730E-02 -0.34968048E-03
    4    4   -0.32993636E+01 -0.18040981E+00 -0.28038127E+01 -0.10218459E+00  0.36406808E-06  0.38844332E-08

    0    0    2
    1    1   -0.19675107E+01  0.13529011E+01  0.21175709E+01 -0.14239548E+01  0.15771232E-10 -0.17474759E-10
    2    1   -0.39230021E-02 -0.10488513E-03 -0.12629195E-01 -0.23400677E-03  0.13334926E-04  0.56332649E-05
    3    1   -0.38679678E-02  0.19622782E-03  0.15053574E-02 -0.65027493E-04  0.83633525E-02 -0.19911229E-04
    4    1    0.38784759E-01  0.93987506E-03  0.16635720E+00  0.29336808E-02  0.24535811E-02  0.43026647E-04
    1    2   -0.39215903E-02  0.81964882E-04 -0.12630053E-01  0.24171833E-03  0.18903594E-03 -0.55894784E-05
    2    2    0.15193309E+01  0.37738533E+00  0.17691340E+01 -0.74998744E+00  0.21439784E-07 -0.63086098E-10
    3    2   -0.46283201E-02  0.11541286E-03 -0.13471164E-01  0.26237328E-03 -0.15681271E-03  0.13388335E-04
    4    2   -0.34455474E-03 -0.15818852E-04 -0.14708237E-02 -0.56482801E-04  0.11427972E+00 -0.81921391E-04
    1    3   -0.40070798E-02  0.32878738E-03  0.11425980E-02 -0.53674043E-04  0.10373676E-02  0.17371934E-04
    2    3    0.71423940E-02  0.17453733E-03  0.21254317E-01  0.42273328E-03  0.56024527E-04  0.18389949E-05
    3    3    0.12483961E+00  0.97552692E+00 -0.10960817E+01 -0.24471865E-01  0.17430887E-10 -0.17449892E-10
    4    3   -0.56741874E-02 -0.18339933E-03 -0.28302094E-01 -0.51607105E-03 -0.72945630E-03  0.30975334E-04
    1    4   -0.18178327E-01  0.43846610E-03 -0.73991146E-01  0.13244267E-02 -0.11132605E-02  0.14428800E-04
    2    4    0.18136168E-03 -0.64536481E-05  0.73485927E-03 -0.23036598E-04 -0.11340879E+00 -0.81000347E-04
    3    4   -0.56724099E-02  0.86476292E-04 -0.28312050E-01  0.53844273E-03  0.66729813E-03 -0.56972259E-04
    4    4   -0.14046565E+01  0.43593422E+00 -0.18814305E+01  0.28142729E+00 -0.37448004E-07  0.68921227E-09

    0    0    3
    1    1    0.25641169E+00 -0.90683383E+00 -0.26338840E+00  0.11395843E+01 -0.99873339E-11  0.34490590E-10
    2    1   -0.34596196E-02 -0.72221738E-04 -0.10424269E-01 -0.19648627E-03 -0.75322900E-04  0.14514125E-05
    3    1   -0.40070171E-02 -0.32808740E-03  0.11426840E-02  0.57289867E-04  0.10084224E-01  0.36701533E-05
    4    1   -0.18178646E-01 -0.40368150E-03 -0.73996088E-01 -0.13322976E-02  0.13981762E-02  0.43994539E-04
    1    2   -0.34607778E-02  0.89871611E-04 -0.10423802E-01  0.19121615E-03 -0.79146516E-04  0.11644990E-04
    2    2   -0.84214896E+00 -0.97084288E+00  0.10853966E+00  0.48329497E-01  0.49460350E-08  0.33038750E-10
    3    2    0.71423495E-02 -0.17382098E-03  0.21254471E-01 -0.42354280E-03 -0.15266783E-03 -0.29496227E-05
    4    2    0.18221441E-03 -0.74814963E-05  0.73941266E-03 -0.33726373E-04  0.12351849E+00 -0.87394764E-04
    1    3   -0.97143241E-03 -0.15643473E-04 -0.60775746E-04  0.12792584E-04 -0.14060859E-01 -0.19257591E-04
    2    3   -0.54657218E-03 -0.14748633E-04 -0.22909290E-02 -0.45866819E-04  0.97754643E-04  0.26910049E-05
    3    3    0.15218423E+01  0.64000575E-01 -0.65304419E+00 -0.37301455E+00 -0.76605527E-11  0.58400836E-11
    4    3    0.28291699E-01  0.68470786E-03  0.11893275E+00  0.22721917E-02  0.91503135E-03 -0.87078946E-04
    1    4   -0.17213528E-01  0.38237128E-03 -0.74748860E-01  0.13358813E-02  0.11613104E-02 -0.15480479E-04
    2    4    0.17062432E-03  0.53092232E-05  0.72756765E-03  0.24432412E-04  0.18994099E-01  0.12388655E-04
    3    4    0.28290927E-01 -0.68792207E-03  0.11893199E+00 -0.22724201E-02 -0.10092202E-02  0.11060420E-03
    4    4    0.11235785E+01 -0.61891904E+00  0.15675424E+01 -0.39193547E+00 -0.93198378E-08 -0.41043848E-08

    0    0    4
    1    1    0.69998911E+00  0.29389530E+00 -0.95950942E+00 -0.47552094E+00 -0.21055316E-10  0.42766530E-10
    2    1    0.29809417E-02  0.72911006E-04  0.97660858E-02  0.18182248E-03 -0.12515523E-03 -0.99277251E-05
    3    1   -0.97086804E-03  0.23264174E-04 -0.59098462E-04  0.74616579E-05 -0.23900135E-01  0.27323725E-04
    4    1   -0.17215089E-01 -0.41185920E-03 -0.74745947E-01 -0.13276140E-02 -0.13882188E-02 -0.21329483E-04
    1    2    0.29806756E-02 -0.68230417E-04  0.97663781E-02 -0.18384659E-03 -0.18543124E-03 -0.13082244E-06
    2    2    0.50006472E+00  0.15388409E+01 -0.55880735E+00  0.76941852E+00 -0.14061607E-08  0.66894484E-09
    3    2   -0.54670968E-03  0.12778418E-04 -0.22911979E-02  0.47022454E-04  0.27589669E-03 -0.90221738E-05
    4    2    0.16972398E-03  0.44373218E-05  0.72389268E-03  0.14647408E-04 -0.29564496E-01  0.21724077E-04
    1    3    0.20686425E-02 -0.15337659E-03 -0.66961696E-03  0.20770884E-04 -0.23615044E-02 -0.83316367E-05
    2    3   -0.33281583E-02 -0.80444616E-04 -0.99315719E-02 -0.19742668E-03 -0.93959708E-05  0.53106406E-05
    3    3   -0.20025099E+01 -0.12449488E+01  0.12069092E+01  0.65716239E+00 -0.23108956E-10  0.21823227E-10
    4    3    0.48354419E-02  0.13839527E-03  0.23431264E-01  0.43897883E-03  0.10148613E-02 -0.23788419E-04
    1    4    0.79837143E-02 -0.19383321E-03  0.32151920E-01 -0.57528695E-03  0.60310130E-03  0.48716633E-06
    2    4   -0.82761939E-04  0.44916423E-05 -0.32769549E-03  0.17446317E-04  0.56564339E-01  0.39974715E-04
    3    4    0.48339963E-02 -0.95349053E-04  0.23435984E-01 -0.44908084E-03 -0.66527640E-03  0.42364324E-04
    4    4    0.19635786E+01  0.47552290E+00  0.15595808E+01  0.18161874E+00  0.27074934E-07 -0.20219924E-08

    0    0    5
    1    1   -0.85669773E+00 -0.14645060E+00  0.12083019E+01 -0.12542620E-04  0.83717866E-10 -0.11099050E-10
    2    1    0.69652233E-03  0.10368906E-04  0.17765522E-02  0.34335700E-04  0.16228292E-03 -0.76888044E-06
    3    1    0.20684813E-02  0.15084509E-03 -0.67003694E-03 -0.30261598E-04 -0.53743984E-02  0.14053672E-05
    4    1    0.79838581E-02  0.17573581E-03  0.32155256E-01  0.57877228E-03 -0.13635798E-02 -0.38665636E-04
    1    2    0.69728418E-03 -0.21835891E-04  0.17763042E-02 -0.31093348E-04  0.18157745E-03 -0.12394413E-04
    2    2   -0.49999101E+00 -0.17071046E+01 -0.14642637E+00 -0.10606530E+01 -0.14876295E-07 -0.69177127E-08
    3    2   -0.33281803E-02  0.81809081E-04 -0.99316563E-02  0.19762131E-03  0.42161386E-04  0.90986049E-05
    4    2   -0.83236535E-04  0.50199625E-05 -0.33038715E-03  0.21899167E-04 -0.83160162E-01  0.59367889E-04
    1    3    0.11368044E-02  0.64369485E-04 -0.79165590E-04 -0.16719943E-04  0.21939886E-01  0.29221975E-04
    2    3    0.15882092E-02  0.39457631E-04  0.53595884E-02  0.10677352E-03 -0.19209928E-03 -0.77010936E-05
    3    3    0.13641795E+01  0.15606590E+01 -0.64959425E+00 -0.56066370E+00  0.93366981E-12 -0.20873199E-10
    4    3   -0.15675727E-01 -0.37754626E-03 -0.66425293E-01 -0.12692491E-02 -0.40937201E-03  0.62811128E-04
    1    4    0.11343323E-01 -0.25451571E-03  0.49889896E-01 -0.89257040E-03 -0.57181996E-03  0.62001380E-05
    2    4   -0.11824686E-03 -0.28191752E-05 -0.50420038E-03 -0.12524272E-04  0.78335955E-02  0.65297299E-05
    3    4   -0.15675392E-01  0.38200029E-03 -0.66423822E-01  0.12698686E-02  0.68340889E-03 -0.51611372E-04
    4    4   -0.19140409E+01 -0.49266499E-05 -0.15590724E+01  0.35355066E+00  0.41937868E-07  0.15717709E-07

    0    0    6
    1    1    0.65420023E+00  0.53454463E+00 -0.71882627E+00 -0.86145475E-01 -0.68255037E-11 -0.16841038E-09
    2    1   -0.19390015E-02 -0.44906769E-04 -0.64269374E-02 -0.12015395E-03  0.92418691E-04  0.10961002E-04
    3    1    0.11365592E-02 -0.68470776E-04 -0.79875372E-04  0.54332633E-05  0.28673345E-01 -0.32886867E-04
    4    1    0.11344306E-01  0.26985061E-03  0.49888808E-01  0.88729329E-03  0.88836064E-03  0.28603363E-05
    1    2   -0.19391429E-02  0.46747050E-04 -0.64269914E-02  0.12006318E-03  0.11285363E-03  0.48006095E-05
    2    2    0.56832333E+00  0.13284375E+01  0.81822986E+00  0.74999848E+00 -0.33737002E-07 -0.13296604E-08
    3    2    0.15882522E-02 -0.38473641E-04  0.53596897E-02 -0.10734373E-03 -0.29602189E-03  0.41112399E-05
    4    2   -0.11781255E-03 -0.20555658E-05 -0.50250385E-03 -0.62057009E-05  0.59408852E-02 -0.45034665E-05
    1    3   -0.13935093E-02  0.57559224E-04  0.46029106E-03 -0.54134237E-05 -0.21695695E-02 -0.70614381E-06
    2    3    0.12360324E-02  0.29248925E-04  0.36519184E-02  0.72440420E-04  0.57620501E-04 -0.48959790E-05
    3    3   -0.41730206E+00 -0.79389303E+00 -0.17899463E+00  0.20610745E+00 -0.89140664E-10 -0.37870859E-10
    4    3   -0.49923179E-02 -0.13495497E-03 -0.23380412E-01 -0.44096867E-03 -0.10730279E-02  0.32107460E-04
    1    4   -0.37796209E-02  0.92774111E-04 -0.15089229E-01  0.27012538E-03 -0.16968650E-03 -0.32533577E-05
    2    4    0.42522123E-04 -0.36143918E-05  0.16386601E-03 -0.14000566E-04 -0.24030998E-01 -0.16668436E-04
    3    4   -0.49913397E-02  0.10685310E-03 -0.23383098E-01  0.44850677E-03  0.42391270E-03 -0.30707518E-04
    4    4   -0.84549010E+00 -0.42127283E+00 -0.11393681E+01 -0.82577532E+00  0.88010066E-07  0.33829903E-08

    0    0    7
    1    1   -0.43407804E+00 -0.99030037E+00  0.35068046E-01  0.65097369E+00  0.48861705E-10 -0.10499606E-08
    2    1    0.40672265E-03  0.13040100E-04  0.16490044E-02  0.30264255E-04 -0.18622636E-03 -0.25481081E-05
    3    1   -0.13933537E-02 -0.55422177E-04  0.46072382E-03  0.13099159E-04 -0.17101365E-02  0.36448111E-05
    4    1   -0.37800760E-02 -0.81838956E-04 -0.15091357E-01 -0.27247228E-03  0.14347816E-02  0.33131456E-04
    1    2    0.40628348E-03 -0.65951084E-05  0.16491341E-02 -0.31986116E-04 -0.19813296E-03  0.83062989E-05
    2    2   -0.41477406E+00 -0.61728716E+00 -0.53430231E+00 -0.30521633E+00  0.41026017E-08  0.13101774E-08
    3    2    0.12360676E-02 -0.30926420E-04  0.36519503E-02 -0.72444716E-04  0.55861689E-04 -0.99420727E-05
    4    2    0.42898384E-04 -0.38170981E-05  0.16604111E-03 -0.16519193E-04  0.68278108E-01 -0.48989084E-04
    1    3   -0.91430421E-03 -0.59231166E-04  0.79729224E-04  0.11978750E-04 -0.17614699E-01 -0.23152509E-04
    2    3   -0.14369642E-02 -0.35402450E-04 -0.48069422E-02 -0.95715548E-04  0.15113870E-03  0.99856593E-05
    3    3   -0.10613077E+00 -0.37301583E+00  0.55882318E+00  0.64001788E-01 -0.96353932E-11  0.25635674E-11
    4    3    0.10171690E-01  0.24426116E-03  0.43509100E-01  0.83208558E-03  0.50300550E-04 -0.50321718E-04
    1    4   -0.87319564E-02  0.19679285E-03 -0.38598065E-01  0.69150840E-03  0.22710380E-03  0.54911787E-05
    2    4    0.92571707E-04  0.15525308E-05  0.39467340E-03  0.74100746E-05 -0.17528716E-01 -0.13289759E-04
    3    4    0.10171103E-01 -0.24773109E-03  0.43508257E-01 -0.83277378E-03 -0.52800947E-03  0.10479796E-04
[...]
    4    3   -0.71202647E-02 -0.17171012E-03 -0.30644736E-01 -0.58569971E-03  0.17786000E-03  0.48715566E-04
    1    4    0.73103004E-02 -0.16589763E-03  0.32227607E-01 -0.57648649E-03 -0.79393353E-04 -0.57159316E-05
    2    4   -0.76681358E-04 -0.83975457E-06 -0.32710622E-03 -0.42892194E-05  0.17941562E-01  0.13414025E-04
    3    4   -0.71198620E-02  0.17332208E-03 -0.30642577E-01  0.58553277E-03  0.48333943E-03  0.93961689E-05
    4    4   -0.41561452E+00 -0.93762260E+00 -0.33648478E+00 -0.44379096E+00 -0.40522472E-08  0.67181029E-08

    0    0   10
    1    1   -0.99929693E+00  0.50000037E+00  0.49987612E+00 -0.99999865E+00  0.50568291E-11  0.17279348E-10
    2    1   -0.17751188E-03 -0.25266275E-05 -0.73202944E-03 -0.13892088E-04 -0.43137976E-04 -0.33759138E-06
    3    1    0.64387120E-03 -0.32939429E-04 -0.50924342E-04  0.47737200E-05  0.67266445E-02 -0.78949698E-05
    4    1    0.73111383E-02  0.17191334E-03  0.32228141E-01  0.57448279E-03  0.29098220E-03 -0.12009584E-04
    1    2   -0.17771685E-03  0.57600536E-05 -0.73199644E-03  0.13176356E-04 -0.41644713E-04  0.10555030E-05
    2    2   -0.50000245E+00 -0.62341029E-06 -0.15000111E+01  0.49999781E+00 -0.29015930E-09  0.27297955E-08
    3    2    0.82235666E-03 -0.20044793E-04  0.28534182E-02 -0.56871493E-04 -0.37149819E-04 -0.51673594E-05
    4    2   -0.76640018E-04 -0.47203129E-06 -0.32714517E-03  0.19770814E-06 -0.14037355E-01  0.10381519E-04
    1    3   -0.75078870E-03 -0.18063865E-04  0.24413009E-03  0.47401603E-05  0.61030482E-02  0.72817428E-05
    2    3   -0.41140821E-03 -0.10666090E-04 -0.12767073E-02 -0.25591250E-04 -0.24419364E-04  0.11952651E-05
    3    3    0.49859527E+00  0.49999991E+00 -0.49941164E+00 -0.49999986E+00  0.44401418E-11  0.57001001E-11
    4    3   -0.56029659E-02 -0.14297717E-03 -0.24970201E-01 -0.47485055E-03 -0.96982921E-03  0.37894092E-04
    1    4    0.23626522E-04  0.24612530E-05  0.48275342E-03 -0.90433278E-05  0.56858045E-03 -0.11024557E-04
    2    4    0.41457356E-05 -0.25263704E-05  0.92576145E-05 -0.10352545E-04  0.20018128E-01  0.14645662E-04
    3    4   -0.56019561E-02  0.12858952E-03 -0.24971044E-01  0.47873272E-03 -0.27781799E-04  0.29481524E-05
    4    4   -0.49994637E+00  0.10000020E+01 -0.49949728E+00  0.49999534E+00  0.35672532E-08  0.10001622E-07

    0    0   11
    1    1    0.12988448E+01 -0.46589377E+00 -0.56115574E+00  0.28838088E+00 -0.54139321E-11 -0.33163354E-10
    2    1    0.45196390E-03  0.10724533E-04  0.16335655E-02  0.30682389E-04  0.33351218E-04  0.46912039E-06
    3    1   -0.75076837E-03  0.18658319E-04  0.24418589E-03 -0.21075406E-05  0.68046904E-02 -0.88985792E-05
    4    1    0.23970441E-04  0.31431956E-05  0.48158382E-03  0.75352355E-05  0.14314769E-02  0.31843879E-04
    1    2    0.45196469E-03 -0.10752747E-04  0.16335237E-02 -0.30481554E-04  0.33734251E-04 -0.14528407E-05
    2    2    0.12065369E+00 -0.29834076E+00  0.57115646E+00 -0.36728564E+00  0.15299223E-10  0.66122960E-08
    3    2   -0.41136099E-03  0.95076865E-05 -0.12766671E-02  0.25596765E-04 -0.29152110E-04  0.29654170E-05
    4    2    0.44866074E-05 -0.25325976E-05  0.10791439E-04 -0.10481727E-04  0.55803775E-01 -0.40108443E-04
    1    3   -0.41219516E-03 -0.44875185E-05  0.21289315E-04  0.31666909E-06  0.33894978E-02  0.43131682E-05
    2    3   -0.18123698E-03 -0.45459294E-05 -0.83250955E-03 -0.16473252E-04 -0.58439336E-04 -0.40052901E-06
    3    3   -0.83320402E+00 -0.16755264E+00  0.67728840E+00  0.97657138E+00 -0.94020841E-11 -0.47697190E-10
    4    3    0.52004055E-02  0.12499504E-03  0.22371102E-01  0.42761296E-03 -0.34048096E-03 -0.39195354E-04
    1    4   -0.63804402E-02  0.14538866E-03 -0.27962808E-01  0.50013562E-03  0.10479445E-03  0.59866026E-05
    2    4    0.65419662E-04  0.21458873E-06  0.27942084E-03  0.19937751E-05 -0.12077419E-01 -0.91796903E-05
    3    4    0.52004521E-02 -0.12696997E-03  0.22370287E-01 -0.42779582E-03 -0.50143887E-03 -0.23501997E-04
    4    4    0.52742652E+00 -0.40736734E+00  0.44849905E+00  0.86464486E-01  0.25947896E-08  0.13781422E-07

    0    0   12
    1    1   -0.96240701E+00  0.47552817E+00  0.71309863E+00  0.29389206E+00 -0.31170389E-10 -0.10537790E-10
    2    1   -0.20424697E-03 -0.56005824E-05 -0.50086660E-03 -0.93624579E-05 -0.46060899E-05  0.50037531E-05
    3    1   -0.41223715E-03  0.43168663E-05  0.21160008E-04 -0.78494647E-06  0.37350164E-02 -0.42094548E-05
    4    1   -0.63808371E-02 -0.14919561E-03 -0.27962576E-01 -0.49893612E-03 -0.37747362E-04  0.11686046E-04
    1    2   -0.20415565E-03  0.41354440E-05 -0.50085610E-03  0.96275308E-05 -0.63942811E-05  0.59564375E-05
    2    2    0.49999450E+00  0.36327153E+00  0.55900266E+00  0.18163661E+00  0.13907389E-09 -0.88242305E-09
    3    2   -0.18120397E-03  0.43892928E-05 -0.83250753E-03  0.16527117E-04 -0.66885380E-04  0.25557608E-05
    4    2    0.65458694E-04 -0.28040908E-07  0.27984796E-03 -0.19198564E-05  0.20342531E-01 -0.15005152E-04
    1    3    0.47942930E-03  0.15951846E-04 -0.17022521E-03 -0.33538142E-05 -0.19669079E-01 -0.23924733E-04
    2    3    0.35543632E-03  0.91300264E-05  0.10608002E-02  0.21229481E-04  0.17031869E-03  0.16282844E-05
    3    3    0.77138752E+00  0.11225700E+00 -0.46328135E+00 -0.10633140E+01 -0.29487726E-10 -0.89114098E-11
    4    3    0.57428686E-02  0.14380681E-03  0.25348451E-01  0.48296896E-03  0.82616081E-03 -0.38946631E-04
    1    4   -0.97535401E-03  0.20229899E-04 -0.45830043E-02  0.82163673E-04 -0.79825099E-03  0.17041651E-04
    2    4    0.70027278E-05  0.21163761E-05  0.36156902E-04  0.91161472E-05 -0.34453716E-01 -0.24939629E-04
    3    4    0.57426585E-02 -0.13469389E-03  0.25349985E-01 -0.48558581E-03  0.99004698E-04 -0.20327892E-04
    4    4    0.28640214E+00 -0.29388469E+00  0.44035067E+00 -0.76942663E+00 -0.15798009E-08  0.38442884E-08

    0    0   13
    1    1    0.22654706E+00 -0.18128522E+00 -0.77987892E+00 -0.46706658E+00  0.14706946E-09  0.13536558E-09
    2    1   -0.87711112E-04 -0.17231702E-05 -0.40028320E-03 -0.76614810E-05 -0.12585926E-03 -0.65052424E-05
    3    1    0.47945898E-03 -0.15818581E-04 -0.17012035E-03  0.25230600E-05 -0.21034671E-01  0.26199928E-04
    4    1   -0.97543219E-03 -0.24588979E-04 -0.45812071E-02 -0.81127245E-04 -0.13699464E-02 -0.29395615E-04
    1    2   -0.87751579E-04  0.24474846E-05 -0.40020836E-03  0.72623599E-05 -0.12658219E-03  0.11884576E-06
    2    2   -0.94848662E+00 -0.11728632E+00 -0.11922026E+01 -0.30521330E+00 -0.30734196E-10 -0.61026060E-09
    3    2    0.35536924E-03 -0.82661505E-05  0.10607362E-02 -0.21205546E-04  0.18454267E-03 -0.77614373E-05
    4    2    0.66769242E-05  0.21263460E-05  0.34991312E-04  0.86172239E-05 -0.52164754E-01  0.37353630E-04
    1    3    0.25648390E-03 -0.12745016E-04 -0.86457363E-06  0.23790290E-05 -0.40881863E-02 -0.55140023E-05
    2    3   -0.21540808E-03 -0.50826935E-05 -0.42617481E-03 -0.86063887E-05  0.50000812E-04  0.54299715E-05
    3    3   -0.22789500E+00 -0.63999604E-01 -0.22557727E+00  0.37301522E+00  0.65553202E-10  0.13073453E-09
    4    3   -0.38324474E-02 -0.91829186E-04 -0.16368737E-01 -0.31300616E-03  0.49418790E-03  0.32332226E-04
    1    4    0.56268120E-02 -0.12837303E-03  0.24564266E-01 -0.43928477E-03 -0.26965058E-03 -0.56294497E-06
    2    4   -0.56709121E-04  0.21239483E-06 -0.24256227E-03 -0.21325493E-06  0.19757610E-02  0.18997058E-05
    3    4   -0.38319153E-02  0.93818324E-04 -0.16366950E-01  0.31290623E-03  0.57031683E-03  0.21964381E-04
    4    4   -0.70689060E-01  0.49911790E+00 -0.29716311E+00  0.94462137E+00 -0.14535885E-08  0.99509731E-09

    0    0   14
    1    1    0.28067779E+00 -0.41651149E+00  0.59859902E+00  0.27712656E+00  0.98006665E-10 -0.97281875E-10
    2    1    0.23021899E-03  0.53278121E-05  0.57910375E-03  0.11007259E-04  0.10760247E-03 -0.46126973E-05
    3    1    0.25650098E-03  0.12934641E-04 -0.80207953E-06 -0.24139302E-05 -0.44598128E-02  0.49227083E-05
    4    1    0.56273853E-02  0.13091228E-03  0.24564956E-01  0.43854744E-03 -0.24206354E-03 -0.13608476E-04
    1    2    0.23024871E-03 -0.56009106E-05  0.57907786E-03 -0.10815836E-04  0.10966579E-03 -0.10479266E-04
    2    2    0.93164114E+00 -0.21040382E+00  0.11816499E+01  0.75000018E+00  0.11169901E-09  0.70945361E-09
    3    2   -0.21545180E-03  0.53781739E-05 -0.42619661E-03  0.85638757E-05  0.56602527E-04  0.31636462E-05
    4    2   -0.56775672E-04  0.41374934E-06 -0.24291562E-03  0.33476702E-05 -0.25804775E-01  0.18933188E-04
    1    3   -0.23151658E-03 -0.23699950E-05  0.10967540E-03  0.44154299E-06  0.28679573E-01  0.35164246E-04
    2    3   -0.48472491E-04 -0.15224292E-05 -0.79606276E-04 -0.16204929E-05 -0.26743895E-03 -0.76962176E-05
    3    3   -0.40298377E+00 -0.20610734E+00  0.99192188E+00  0.79389310E+00  0.80452938E-10 -0.12054012E-09
    4    3   -0.57387806E-02 -0.14200947E-03 -0.25298728E-01 -0.48267121E-03 -0.62586770E-03  0.45313032E-04
    1    4    0.16592250E-02 -0.35818570E-04  0.76458922E-02 -0.13685693E-03  0.95181638E-03 -0.23113031E-04
    2    4   -0.15823915E-04 -0.18336803E-05 -0.72406586E-04 -0.82704175E-05  0.43619598E-01  0.31494978E-04
    3    4   -0.57381909E-02  0.13596908E-03 -0.25299248E-01  0.48415183E-03 -0.87006825E-04  0.35619261E-04
    4    4   -0.84541367E+00 -0.19676458E+00 -0.55089561E+00 -0.60126328E+00  0.20071117E-09  0.55014378E-08

    0    0   15
    1    1   -0.14558764E+00  0.85355311E+00 -0.20739674E+00 -0.33633684E-06  0.92476488E-09 -0.57987707E-09
    2    1   -0.18844174E-03 -0.45083700E-05 -0.53649098E-03 -0.99757372E-05  0.11182511E-03  0.10153648E-04
    3    1   -0.23156146E-03  0.19046717E-05  0.10951612E-03 -0.62149141E-06  0.30057792E-01 -0.37003361E-04
    4    1    0.16596239E-02  0.39893020E-04  0.76446244E-02  0.13602452E-03  0.12931881E-02  0.23133489E-04
    1    2   -0.18843730E-03  0.44028133E-05 -0.53654077E-03  0.10192633E-04  0.11146036E-03  0.42855007E-05
    2    2   -0.50000439E+00  0.29289337E+00 -0.85356599E+00 -0.10606598E+01  0.52326600E-08  0.29818131E-08
    3    2   -0.48415945E-04  0.86007869E-06 -0.79560122E-04  0.15839309E-05 -0.28196821E-03  0.63586487E-05
    4    2   -0.15521263E-04 -0.18470887E-05 -0.71374064E-04 -0.70391415E-05  0.48929384E-01 -0.34808385E-04
    1    3   -0.18033522E-03  0.14870336E-04 -0.97240685E-05 -0.23896381E-05 -0.16815268E-02 -0.15666266E-05
    2    3    0.27649013E-03  0.64982521E-05  0.64522603E-03  0.12955605E-04  0.31251762E-04 -0.48898266E-05
    3    3    0.64455470E+00  0.56066009E+00 -0.13529811E+01 -0.15606592E+01  0.65138886E-09 -0.50119680E-09
    4    3    0.26978063E-02  0.63629999E-04  0.11401954E-01  0.21825096E-03 -0.65591467E-03 -0.24530327E-04
    1    4   -0.49088014E-02  0.11324127E-03 -0.21463018E-01  0.38345305E-03  0.52361722E-03 -0.37417135E-05
    2    4    0.49317246E-04 -0.58287837E-06  0.21156920E-03 -0.14693790E-05  0.10506581E-01  0.69826112E-05
    3    4    0.26976540E-02 -0.67590531E-04  0.11400172E-01 -0.21760828E-03 -0.68937273E-03 -0.13662715E-04
    4    4    0.91416834E+00 -0.54197166E-05  0.56025946E+00  0.35354446E+00  0.83109910E-09  0.16506976E-07

    0    0   16
    1    1   -0.40427220E+00 -0.65716357E+00 -0.15466117E+00 -0.11225610E+00  0.94120696E-09 -0.16101851E-08
    2    1   -0.36279276E-04 -0.27931296E-06  0.55951480E-04  0.80668627E-06 -0.17282940E-03  0.59856353E-06
    3    1   -0.18031029E-03 -0.14916304E-04 -0.96862195E-05  0.30690819E-05 -0.16336826E-02  0.23126960E-05
    4    1   -0.49090839E-02 -0.11395970E-03 -0.21464157E-01 -0.38336792E-03  0.53092889E-03  0.16653365E-04
    1    2   -0.36364214E-04  0.14108453E-05  0.55982882E-04 -0.12008341E-05 -0.17414548E-03  0.93694113E-05
    2    2   -0.69431033E-06 -0.24303635E-06  0.55901817E+00  0.76942013E+00 -0.11712497E-08  0.15118312E-08
    3    2    0.27652688E-03 -0.69476244E-05  0.64524333E-03 -0.12913045E-04  0.30368173E-04 -0.66625548E-05
    4    2    0.49396298E-04 -0.82134624E-06  0.21184864E-03 -0.43127297E-05  0.30763263E-01 -0.22482647E-04
    1    3    0.35820982E-04 -0.10545453E-04 -0.64529773E-04  0.14320538E-05 -0.26175964E-01 -0.32198092E-04
    2    3   -0.24079993E-03 -0.55746283E-05 -0.84220987E-03 -0.16789322E-04  0.23923620E-03  0.11942632E-04
    3    3   -0.40502696E+00 -0.65716401E+00  0.12135810E+01  0.12449484E+01  0.88041647E-10 -0.15639870E-08
    4    3    0.56438165E-02  0.13807475E-03  0.24978870E-01  0.47703503E-03  0.41295763E-03 -0.52680638E-04
    1    4   -0.22434032E-02  0.50436943E-04 -0.10273165E-01  0.18319161E-03 -0.10411079E-02  0.30431906E-04
    2    4    0.23237199E-04  0.15543023E-05  0.10329564E-03  0.74063165E-05 -0.47343551E-01 -0.34223483E-04
    3    4    0.56432270E-02 -0.13582082E-03  0.24978430E-01 -0.47715845E-03  0.35032639E-04 -0.52527075E-04
    4    4   -0.65459712E+00 -0.47553022E+00 -0.25076042E+00 -0.76944351E+00 -0.21192044E-09  0.54688518E-08

    0    0   17
    1    1    0.72913971E+00 -0.97822903E-01  0.23941731E+00  0.21530937E-01 -0.55867561E-10 -0.18555029E-09
    2    1    0.25084875E-03  0.54075851E-05  0.77220806E-03  0.14547524E-04 -0.15833604E-04 -0.82278461E-05
    3    1    0.35853827E-04  0.10838711E-04 -0.64414564E-04 -0.19674738E-05 -0.27002915E-01  0.33204138E-04
    4    1   -0.22439881E-02 -0.53276583E-04 -0.10272786E-01 -0.18314034E-03 -0.12181703E-02 -0.17779862E-04
    1    2    0.25091315E-03 -0.64791209E-05  0.77221447E-03 -0.14408452E-04 -0.14922596E-04 -0.71115244E-05
    2    2    0.20536194E+00 -0.47083934E+00 -0.38217076E+00  0.48341324E-01  0.44211594E-10 -0.13952849E-09
    3    2   -0.24084262E-03  0.62041532E-05 -0.84223133E-03  0.16794883E-04  0.24694124E-03 -0.40178319E-06
    4    2    0.22950369E-04  0.15231519E-05  0.10232645E-03  0.59528260E-05 -0.45688313E-01  0.32229187E-04
    1    3    0.15692352E-03 -0.54274465E-05  0.13907421E-04  0.24468574E-06  0.54308408E-02  0.62976941E-05
    2    3   -0.80223191E-04 -0.16387069E-05 -0.67891015E-04 -0.14150067E-05 -0.89015425E-04 -0.22507530E-06
    3    3    0.17286263E-01  0.37301658E+00 -0.90696768E+00 -0.64000631E-01 -0.54446343E-10 -0.22774947E-09
    4    3   -0.16256078E-02 -0.37337649E-04 -0.68028277E-02 -0.13040915E-03  0.81335608E-03  0.21254527E-04
    1    4    0.41895011E-02 -0.96675361E-04  0.18466521E-01 -0.33033048E-03 -0.78760173E-03  0.82126221E-05
    2    4   -0.42679438E-04  0.78754753E-06 -0.18365660E-03  0.27523207E-05 -0.23546622E-01 -0.16241239E-04
    3    4   -0.16260541E-02  0.41279741E-04 -0.68018401E-02  0.13025538E-03  0.82129314E-03 -0.20027022E-06
    4    4    0.11665674E+01  0.14501713E+01  0.72125110E+00  0.16771580E+01 -0.80504074E-09 -0.69367587E-09

    0    0   18
    1    1   -0.44322407E+00  0.76512414E+00 -0.44860884E-02  0.11491175E+00 -0.87918986E-11  0.17126507E-09
    2    1   -0.18823126E-03 -0.49483438E-05 -0.78875202E-03 -0.14595133E-04  0.13187772E-03  0.26490924E-05
    3    1    0.15687907E-03  0.52495771E-05  0.13812990E-04 -0.18819248E-05  0.55097922E-02 -0.67698940E-05
    4    1    0.41889683E-02  0.96910392E-04  0.18467244E-01  0.32996980E-03 -0.79381709E-03 -0.23483414E-04
    1    2   -0.18817906E-03  0.40085404E-05 -0.78877567E-03  0.14903458E-04  0.13218078E-03 -0.38549118E-05
    2    2   -0.19425524E-01  0.74065282E+00  0.23056081E+00 -0.74999939E+00  0.47412213E-11 -0.38314316E-10
    3    2   -0.80246955E-04  0.22472085E-05 -0.67895317E-04  0.13500371E-05 -0.90201254E-04  0.41820672E-05
    4    2   -0.42846773E-04  0.10948520E-05 -0.18390190E-03  0.52158617E-05 -0.35340688E-01  0.25732696E-04
    1    3    0.87067733E-04  0.14401160E-04  0.34895627E-04 -0.15723137E-05  0.13670738E-01  0.16851741E-04
    2    3    0.33139618E-03  0.77868027E-05  0.11487982E-02  0.22917722E-04 -0.10324137E-03 -0.10299789E-04
    3    3    0.15377609E+00  0.24471825E-01  0.79688883E+00 -0.97552776E+00 -0.10584016E-10  0.17230611E-09
    4    3   -0.55401225E-02 -0.13487810E-03 -0.24640175E-01 -0.47073791E-03 -0.21663355E-03  0.62395664E-04
    1    4    0.28377271E-02 -0.64091102E-04  0.12855280E-01 -0.22961163E-03  0.10644828E-02 -0.32740742E-04
    2    4   -0.29986238E-04 -0.14086711E-05 -0.13128774E-03 -0.67965174E-05  0.45795260E-01  0.33146951E-04
    3    4   -0.55402398E-02  0.13341072E-03 -0.24639697E-01  0.47111491E-03  0.10708693E-04  0.64243198E-04
    4    4   -0.14044272E+01 -0.20539693E+01 -0.92823171E+00 -0.22084527E+01  0.71572186E-10 -0.16580874E-08

    0    0   19
    1    1   -0.18032150E+00 -0.72276517E+00 -0.34020143E+00 -0.12724483E+00  0.14742151E-10  0.13197230E-10
    2    1   -0.11072141E-03 -0.16720093E-05 -0.34607653E-03 -0.66751856E-05 -0.72277977E-04  0.17129384E-05
    3    1    0.87063073E-04 -0.14401318E-04  0.34878158E-04  0.31270667E-05  0.13905053E-01 -0.17271073E-04
    4    1    0.28372567E-02  0.67009438E-04  0.12855120E-01  0.22948166E-03  0.11299615E-02  0.12782573E-04
    1    2   -0.11086143E-03  0.35761536E-05 -0.34605697E-03  0.62941842E-05 -0.72721907E-04  0.48896558E-05
    2    2   -0.33007601E+00 -0.55521274E+00 -0.73450381E-01  0.72083843E+00 -0.53536524E-11  0.61826327E-11
    3    2    0.33143782E-03 -0.84200849E-05  0.11488041E-02 -0.22908358E-04 -0.10422784E-03 -0.49062718E-05
    4    2   -0.29846073E-04 -0.12503646E-05 -0.13014095E-03 -0.49590098E-05  0.42223380E-01 -0.29541252E-04
    1    3   -0.14134977E-03 -0.72932527E-05 -0.20053430E-04  0.21576989E-05  0.51051411E-04  0.34652260E-06
    2    3   -0.18775837E-03 -0.49238960E-05 -0.73202423E-03 -0.14572551E-04  0.41307489E-04  0.50488097E-05
    3    3   -0.77654617E-01 -0.16755296E+00 -0.91058185E+00  0.97657123E+00  0.15157185E-10  0.14856591E-10
    4    3    0.54514372E-03  0.10542715E-04  0.22695361E-02  0.43912924E-04 -0.91759922E-03 -0.18548081E-04
    1    4   -0.34875684E-02  0.81487040E-04 -0.15579073E-01  0.27859051E-03  0.99978904E-03 -0.10475771E-04
    2    4    0.36260376E-04 -0.99350622E-06  0.15677171E-03 -0.40358849E-05  0.35395378E-01  0.24624480E-04
    3    4    0.54520704E-03 -0.15809913E-04  0.22691155E-02 -0.43173548E-04 -0.91935642E-03  0.12049803E-04
    4    4    0.33366818E+00  0.15254046E+01 -0.16024342E+00  0.16036555E+01  0.23561551E-09  0.51975329E-10

    0    0   20
    1    1    0.49864565E+00 -0.31624572E-14  0.50033438E+00  0.46254598E-14  0.27061686E-15  0.17235251E-16
    2    1    0.28368198E-03  0.67436695E-05  0.11001468E-02  0.20588869E-04 -0.70323242E-07 -0.15045227E-05
    3    1   -0.14132120E-03  0.74948162E-05 -0.19982902E-04 -0.12480329E-06  0.53441535E-04 -0.14159522E-06
    4    1   -0.34877904E-02 -0.79846006E-04 -0.15579402E-01 -0.27851737E-03  0.99430585E-03  0.29383800E-04
    1    2    0.28368198E-03 -0.67436695E-05  0.11001468E-02 -0.20588869E-04  0.70323242E-07 -0.15045227E-05
    2    2    0.50000688E+00 -0.21140084E-14  0.25517494E-04 -0.27255633E-14 -0.38857806E-15  0.17235468E-16
    3    2   -0.18772622E-03  0.42709604E-05 -0.73202455E-03  0.14614297E-04  0.41047421E-04  0.32659554E-05
    4    2    0.36382846E-04 -0.12915327E-05  0.15756315E-03 -0.59574386E-05  0.39568924E-01 -0.28691351E-04
    1    3   -0.14132120E-03 -0.74948162E-05 -0.19982902E-04  0.12480329E-06 -0.53441535E-04 -0.14159522E-06
    2    3   -0.18772622E-03 -0.42709604E-05 -0.73202455E-03 -0.14614297E-04 -0.41047421E-04  0.32659554E-05
    3    3    0.12727305E-02 -0.18625016E-14  0.99948719E+00  0.71327990E-14  0.12004286E-14  0.52627231E-16
    4    3    0.54961408E-02  0.13299731E-03  0.24499250E-01  0.46839621E-03  0.46075476E-04 -0.69112182E-04
    1    4   -0.34877904E-02  0.79846006E-04 -0.15579402E-01  0.27851737E-03 -0.99430585E-03  0.29383800E-04
    2    4    0.36382846E-04  0.12915327E-05  0.15756315E-03  0.59574386E-05 -0.39568924E-01 -0.28691351E-04
    3    4    0.54961408E-02 -0.13299731E-03  0.24499250E-01 -0.46839621E-03 -0.46075476E-04 -0.69112182E-04
    4    4    0.49991733E+00 -0.39880695E-15  0.99923733E+00  0.25369869E-14  0.34694470E-15  0.52625912E-16
