
     Program POST-PROC v.6.7MaX starts on 11Jun2021 at 19:45:54 

     This program is part of the open-source Quantum ESPRESSO suite
     for quantum simulation of materials; please cite
         "P. Giannozzi et al., J. Phys.:Condens. Matter 21 395502 (2009);
         "P. Giannozzi et al., J. Phys.:Condens. Matter 29 465901 (2017);
          URL http://www.quantum-espresso.org", 
     in publications or presentations arising from this work. More details at
     http://www.quantum-espresso.org/quote

     Parallel version (MPI & OpenMP), running on      56 processor cores
     Number of MPI processes:                 1
     Threads/MPI process:                    56

     MPI processes distributed on     1 nodes

     Reading xml data from directory:

     ./outdir/carbyne.save/
     file C.pbe-n-kjpaw_psl.1.0.0.UPF: wavefunction(s)  2S 2P renormalized

     IMPORTANT: XC functional enforced from input :
     Exchange-correlation= PBE
                           (   1   4   3   4   0   0   0)
     Any further DFT definition will be discarded
     Please, verify this is what you really want

 
     G-vector sticks info
     --------------------
     sticks:   dense  smooth     PW     G-vecs:    dense   smooth      PW
     Sum       56853   22733   6777              1307799   330385   53475
 

     negative rho (up, down):  5.469E-04 0.000E+00

     Calling punch_plot, plot_num =   7

     Plotting k_point =   1  band =  1
     Writing data to file  psi2.carbyne_K001_B001

     Calling punch_plot, plot_num =   7

     Plotting k_point =   1  band =  2
     Writing data to file  psi2.carbyne_K001_B002

     Calling punch_plot, plot_num =   7

     Plotting k_point =   1  band =  3
     Writing data to file  psi2.carbyne_K001_B003

     Calling punch_plot, plot_num =   7

     Plotting k_point =   1  band =  4
     Writing data to file  psi2.carbyne_K001_B004

     Calling punch_plot, plot_num =   7

     Plotting k_point =   1  band =  5
     Writing data to file  psi2.carbyne_K001_B005

     Calling punch_plot, plot_num =   7

     Plotting k_point =   1  band =  6
     Writing data to file  psi2.carbyne_K001_B006

     Calling punch_plot, plot_num =   7

     Plotting k_point =   1  band =  7
     Writing data to file  psi2.carbyne_K001_B007

     Calling punch_plot, plot_num =   7

     Plotting k_point =   1  band =  8
     Writing data to file  psi2.carbyne_K001_B008
     Reading data from file  psi2.carbyne_K001_B001

     Writing data to be plotted to file psi2.carbyne_K001_B001.xsf
     Plot Type: 3D                     Output format: XCrySDen     
     Reading data from file  psi2.carbyne_K001_B002

     Writing data to be plotted to file psi2.carbyne_K001_B002.xsf
     Plot Type: 3D                     Output format: XCrySDen     
     Reading data from file  psi2.carbyne_K001_B003

     Writing data to be plotted to file psi2.carbyne_K001_B003.xsf
     Plot Type: 3D                     Output format: XCrySDen     
     Reading data from file  psi2.carbyne_K001_B004

     Writing data to be plotted to file psi2.carbyne_K001_B004.xsf
     Plot Type: 3D                     Output format: XCrySDen     
     Reading data from file  psi2.carbyne_K001_B005

     Writing data to be plotted to file psi2.carbyne_K001_B005.xsf
     Plot Type: 3D                     Output format: XCrySDen     
     Reading data from file  psi2.carbyne_K001_B006

     Writing data to be plotted to file psi2.carbyne_K001_B006.xsf
     Plot Type: 3D                     Output format: XCrySDen     
     Reading data from file  psi2.carbyne_K001_B007

     Writing data to be plotted to file psi2.carbyne_K001_B007.xsf
     Plot Type: 3D                     Output format: XCrySDen     
     Reading data from file  psi2.carbyne_K001_B008

     Writing data to be plotted to file psi2.carbyne_K001_B008.xsf
     Plot Type: 3D                     Output format: XCrySDen     
 
     POST-PROC    :   6m 1.82s CPU   3m 8.91s WALL

 
   This run was terminated on:  19:49: 3  11Jun2021            

=------------------------------------------------------------------------------=
   JOB DONE.
=------------------------------------------------------------------------------=
