
     Program PWSCF v.6.7MaX starts on 11Jun2021 at 15: 9:14 

     This program is part of the open-source Quantum ESPRESSO suite
     for quantum simulation of materials; please cite
         "P. Giannozzi et al., J. Phys.:Condens. Matter 21 395502 (2009);
         "P. Giannozzi et al., J. Phys.:Condens. Matter 29 465901 (2017);
          URL http://www.quantum-espresso.org", 
     in publications or presentations arising from this work. More details at
     http://www.quantum-espresso.org/quote

     Parallel version (MPI & OpenMP), running on      56 processor cores
     Number of MPI processes:                14
     Threads/MPI process:                     4

     MPI processes distributed on     1 nodes
     K-points division:     npool     =      14
     Waiting for input...
     Reading input from standard input
Warning: card &CELL ignored
Warning: card / ignored
Warning: card END FINAL COORDINATES ignored

     Current dimensions of program PWSCF are:
     Max number of different atomic species (ntypx) = 10
     Max number of k-points (npk) =  40000
     Max angular momentum in pseudopotentials (lmaxx) =  3
     file C.pbe-n-kjpaw_psl.1.0.0.UPF: wavefunction(s)  2S 2P renormalized

     Subspace diagonalization in iterative solution of the eigenvalue problem:
     a serial algorithm will be used

     Message from routine setup:
     using ibrav=0 with symmetry is DISCOURAGED, use correct ibrav instead
     Message from routine divide_et_impera:
     suboptimal parallelization: some nodes have no k-points
 
     G-vector sticks info
     --------------------
     sticks:   dense  smooth     PW     G-vecs:    dense   smooth      PW
     Sum       56853   22733   6777              1307799   330385   53475
 


     bravais-lattice index     =            0
     lattice parameter (alat)  =      37.7945  a.u.
     unit-cell volume          =    6926.4511 (a.u.)^3
     number of atoms/cell      =            2
     number of atomic types    =            1
     number of electrons       =         8.00
     number of Kohn-Sham states=            4
     kinetic-energy cutoff     =      50.0000  Ry
     charge density cutoff     =     500.0000  Ry
     scf convergence threshold =      1.0E-09
     mixing beta               =       0.7000
     number of iterations used =            8  plain     mixing
     energy convergence thresh.=      1.0E-08
     force convergence thresh. =      1.0E-07
     Exchange-correlation= SLA  PW   PBX  PBC
                           (   1   4   3   4   0   0   0)
     nstep                     =           50


     celldm(1)=  37.794522  celldm(2)=   0.000000  celldm(3)=   0.000000
     celldm(4)=   0.000000  celldm(5)=   0.000000  celldm(6)=   0.000000

     crystal axes: (cart. coord. in units of alat)
               a(1) = (   1.000000   0.000000   0.000000 )  
               a(2) = (   0.000000   1.000000   0.000000 )  
               a(3) = (   0.000000   0.000000   0.128299 )  

     reciprocal axes: (cart. coord. in units 2 pi/alat)
               b(1) = (  1.000000  0.000000  0.000000 )  
               b(2) = (  0.000000  1.000000  0.000000 )  
               b(3) = (  0.000000  0.000000  7.794277 )  


     PseudoPot. # 1 for C  read from file:
     ../pseudopot/C.pbe-n-kjpaw_psl.1.0.0.UPF
     MD5 check sum: 6fec8efd722f5d988670a8dc528584a2
     Pseudo is Projector augmented-wave + core cor, Zval =  4.0
     Generated using "atomic" code by A. Dal Corso  v.5.1.2
     Shape of augmentation charge: PSQ
     Using radial grid of 1073 points,  4 beta functions with: 
                l(1) =   0
                l(2) =   0
                l(3) =   1
                l(4) =   1
     Q(r) pseudized with 0 coefficients 


     atomic species   valence    mass     pseudopotential
        C              4.00    12.01070     C ( 1.00)

      8 Sym. Ops. (no inversion) found


                                    s                        frac. trans.

      isym =  1     identity                                     

 cryst.   s( 1) = (     1          0          0      )
                  (     0          1          0      )
                  (     0          0          1      )

 cart.    s( 1) = (  1.0000000  0.0000000  0.0000000 )
                  (  0.0000000  1.0000000  0.0000000 )
                  (  0.0000000  0.0000000  1.0000000 )


      isym =  2     180 deg rotation - cart. axis [0,0,1]        

 cryst.   s( 2) = (    -1          0          0      )
                  (     0         -1          0      )
                  (     0          0          1      )

 cart.    s( 2) = ( -1.0000000  0.0000000  0.0000000 )
                  (  0.0000000 -1.0000000  0.0000000 )
                  (  0.0000000  0.0000000  1.0000000 )


      isym =  3      90 deg rotation - cart. axis [0,0,-1]       

 cryst.   s( 3) = (     0         -1          0      )
                  (     1          0          0      )
                  (     0          0          1      )

 cart.    s( 3) = (  0.0000000  1.0000000  0.0000000 )
                  ( -1.0000000  0.0000000  0.0000000 )
                  (  0.0000000  0.0000000  1.0000000 )


      isym =  4      90 deg rotation - cart. axis [0,0,1]        

 cryst.   s( 4) = (     0          1          0      )
                  (    -1          0          0      )
                  (     0          0          1      )

 cart.    s( 4) = (  0.0000000 -1.0000000  0.0000000 )
                  (  1.0000000  0.0000000  0.0000000 )
                  (  0.0000000  0.0000000  1.0000000 )


      isym =  5     inv. 180 deg rotation - cart. axis [0,1,0]   

 cryst.   s( 5) = (     1          0          0      )
                  (     0         -1          0      )
                  (     0          0          1      )

 cart.    s( 5) = (  1.0000000  0.0000000  0.0000000 )
                  (  0.0000000 -1.0000000  0.0000000 )
                  (  0.0000000  0.0000000  1.0000000 )


      isym =  6     inv. 180 deg rotation - cart. axis [1,0,0]   

 cryst.   s( 6) = (    -1          0          0      )
                  (     0          1          0      )
                  (     0          0          1      )

 cart.    s( 6) = ( -1.0000000  0.0000000  0.0000000 )
                  (  0.0000000  1.0000000  0.0000000 )
                  (  0.0000000  0.0000000  1.0000000 )


      isym =  7     inv. 180 deg rotation - cart. axis [1,1,0]   

 cryst.   s( 7) = (     0         -1          0      )
                  (    -1          0          0      )
                  (     0          0          1      )

 cart.    s( 7) = (  0.0000000 -1.0000000  0.0000000 )
                  ( -1.0000000  0.0000000  0.0000000 )
                  (  0.0000000  0.0000000  1.0000000 )


      isym =  8     inv. 180 deg rotation - cart. axis [1,-1,0]  

 cryst.   s( 8) = (     0          1          0      )
                  (     1          0          0      )
                  (     0          0          1      )

 cart.    s( 8) = (  0.0000000  1.0000000  0.0000000 )
                  (  1.0000000  0.0000000  0.0000000 )
                  (  0.0000000  0.0000000  1.0000000 )


   Cartesian axes

     site n.     atom                  positions (alat units)
         1           C   tau(   1) = (   0.5000000   0.5000000  -0.0002845  )
         2           C   tau(   2) = (   0.5000000   0.5000000   0.0627708  )

   Crystallographic axes

     site n.     atom                  positions (cryst. coord.)
         1           C   tau(   1) = (  0.5000000  0.5000000 -0.0022173  )
         2           C   tau(   2) = (  0.5000000  0.5000000  0.4892527  )

     number of k points=    11
                       cart. coord. in units 2pi/alat
        k(    1) = (   0.0000000   0.0000000   0.0000000), wk =   0.1000000
        k(    2) = (   0.0000000   0.0000000   0.3897138), wk =   0.2000000
        k(    3) = (   0.0000000   0.0000000   0.7794277), wk =   0.2000000
        k(    4) = (   0.0000000   0.0000000   1.1691415), wk =   0.2000000
        k(    5) = (   0.0000000   0.0000000   1.5588553), wk =   0.2000000
        k(    6) = (   0.0000000   0.0000000   1.9485691), wk =   0.2000000
        k(    7) = (   0.0000000   0.0000000   2.3382830), wk =   0.2000000
        k(    8) = (   0.0000000   0.0000000   2.7279968), wk =   0.2000000
        k(    9) = (   0.0000000   0.0000000   3.1177106), wk =   0.2000000
        k(   10) = (   0.0000000   0.0000000   3.5074245), wk =   0.2000000
        k(   11) = (   0.0000000   0.0000000  -3.8971383), wk =   0.1000000

                       cryst. coord.
        k(    1) = (   0.0000000   0.0000000   0.0000000), wk =   0.1000000
        k(    2) = (   0.0000000   0.0000000   0.0500000), wk =   0.2000000
        k(    3) = (   0.0000000   0.0000000   0.1000000), wk =   0.2000000
        k(    4) = (   0.0000000   0.0000000   0.1500000), wk =   0.2000000
        k(    5) = (   0.0000000   0.0000000   0.2000000), wk =   0.2000000
        k(    6) = (   0.0000000   0.0000000   0.2500000), wk =   0.2000000
        k(    7) = (   0.0000000   0.0000000   0.3000000), wk =   0.2000000
        k(    8) = (   0.0000000   0.0000000   0.3500000), wk =   0.2000000
        k(    9) = (   0.0000000   0.0000000   0.4000000), wk =   0.2000000
        k(   10) = (   0.0000000   0.0000000   0.4500000), wk =   0.2000000
        k(   11) = (   0.0000000   0.0000000  -0.5000000), wk =   0.1000000

     Dense  grid:  1307799 G-vectors     FFT dimensions: ( 270, 270,  36)

     Smooth grid:   330385 G-vectors     FFT dimensions: ( 180, 180,  24)

     Dynamical RAM for                 wfc:       2.52 MB

     Dynamical RAM for     wfc (w. buffer):       2.52 MB

     Dynamical RAM for           str. fact:      19.96 MB

     Dynamical RAM for           local pot:       0.00 MB

     Dynamical RAM for          nlocal pot:      10.10 MB

     Dynamical RAM for                qrad:       0.51 MB

     Dynamical RAM for          rho,v,vnew:     119.93 MB

     Dynamical RAM for               rhoin:      39.98 MB

     Dynamical RAM for            rho*nmix:     319.29 MB

     Dynamical RAM for           G-vectors:      77.35 MB

     Dynamical RAM for          h,s,v(r/c):       0.00 MB

     Dynamical RAM for          <psi|beta>:       0.00 MB

     Dynamical RAM for                 psi:       5.05 MB

     Dynamical RAM for                hpsi:       5.05 MB

     Dynamical RAM for                spsi:       5.05 MB

     Dynamical RAM for      wfcinit/wfcrot:      10.10 MB

     Dynamical RAM for           addusdens:      82.67 MB

     Dynamical RAM for          addusforce:      76.97 MB

     Dynamical RAM for         addusstress:      80.53 MB

     Estimated static dynamical RAM per process >     729.66 MB

     Estimated max dynamical RAM per process >     812.34 MB

     Estimated total dynamical RAM >      11.11 GB

     Initial potential from superposition of free atoms

     starting charge    7.99992, renormalised to    8.00000

     negative rho (up, down):  3.997E-04 0.000E+00
     Starting wfcs are    8 randomized atomic wfcs
     Checking if some PAW data can be deallocated... 

     total cpu time spent up to now is        6.6 secs

     Self-consistent Calculation

     iteration #  1     ecut=    50.00 Ry     beta= 0.70
     Davidson diagonalization with overlap
     ethr =  1.00E-02,  avg # of iterations =  2.0

     negative rho (up, down):  4.929E-04 0.000E+00

     total cpu time spent up to now is        8.9 secs

     total energy              =     -36.70023140 Ry
     estimated scf accuracy    <       0.24599481 Ry

     iteration #  2     ecut=    50.00 Ry     beta= 0.70
     Davidson diagonalization with overlap
     ethr =  3.07E-03,  avg # of iterations =  2.0

     negative rho (up, down):  5.246E-04 0.000E+00

     total cpu time spent up to now is       12.0 secs

     total energy              =     -36.74262216 Ry
     estimated scf accuracy    <       0.00451857 Ry

     iteration #  3     ecut=    50.00 Ry     beta= 0.70
     Davidson diagonalization with overlap
     ethr =  5.65E-05,  avg # of iterations =  1.9

     negative rho (up, down):  5.425E-04 0.000E+00

     total cpu time spent up to now is       14.0 secs

     total energy              =     -36.74303698 Ry
     estimated scf accuracy    <       0.00020184 Ry

     iteration #  4     ecut=    50.00 Ry     beta= 0.70
     Davidson diagonalization with overlap
     ethr =  2.52E-06,  avg # of iterations =  2.5

     negative rho (up, down):  5.452E-04 0.000E+00

     total cpu time spent up to now is       16.0 secs

     total energy              =     -36.74312425 Ry
     estimated scf accuracy    <       0.00001322 Ry

     iteration #  5     ecut=    50.00 Ry     beta= 0.70
     Davidson diagonalization with overlap
     ethr =  1.65E-07,  avg # of iterations =  2.5

     negative rho (up, down):  5.452E-04 0.000E+00

     total cpu time spent up to now is       18.0 secs

     total energy              =     -36.74312918 Ry
     estimated scf accuracy    <       0.00000115 Ry

     iteration #  6     ecut=    50.00 Ry     beta= 0.70
     Davidson diagonalization with overlap
     ethr =  1.44E-08,  avg # of iterations =  2.9

     negative rho (up, down):  5.459E-04 0.000E+00

     total cpu time spent up to now is       20.1 secs

     total energy              =     -36.74312982 Ry
     estimated scf accuracy    <       0.00000039 Ry

     iteration #  7     ecut=    50.00 Ry     beta= 0.70
     Davidson diagonalization with overlap
     ethr =  4.91E-09,  avg # of iterations =  2.4

     negative rho (up, down):  5.459E-04 0.000E+00

     total cpu time spent up to now is       22.1 secs

     total energy              =     -36.74312992 Ry
     estimated scf accuracy    <       0.00000004 Ry

     iteration #  8     ecut=    50.00 Ry     beta= 0.70
     Davidson diagonalization with overlap
     ethr =  5.00E-10,  avg # of iterations =  2.1

     negative rho (up, down):  5.459E-04 0.000E+00

     total cpu time spent up to now is       24.2 secs

     total energy              =     -36.74312992 Ry
     estimated scf accuracy    <       0.00000002 Ry

     iteration #  9     ecut=    50.00 Ry     beta= 0.70
     Davidson diagonalization with overlap
     ethr =  2.27E-10,  avg # of iterations =  3.3

     negative rho (up, down):  5.459E-04 0.000E+00

     total cpu time spent up to now is       26.3 secs

     total energy              =     -36.74312993 Ry
     estimated scf accuracy    <          8.6E-09 Ry

     iteration # 10     ecut=    50.00 Ry     beta= 0.70
     Davidson diagonalization with overlap
     ethr =  1.08E-10,  avg # of iterations =  1.0

     negative rho (up, down):  5.459E-04 0.000E+00

     total cpu time spent up to now is       28.2 secs

     total energy              =     -36.74312993 Ry
     estimated scf accuracy    <          5.2E-09 Ry

     iteration # 11     ecut=    50.00 Ry     beta= 0.70
     Davidson diagonalization with overlap
     ethr =  6.50E-11,  avg # of iterations =  2.8

     negative rho (up, down):  5.459E-04 0.000E+00

     total cpu time spent up to now is       30.4 secs

     total energy              =     -36.74312993 Ry
     estimated scf accuracy    <          1.7E-09 Ry

     iteration # 12     ecut=    50.00 Ry     beta= 0.70
     Davidson diagonalization with overlap
     ethr =  2.12E-11,  avg # of iterations =  1.2

     negative rho (up, down):  5.459E-04 0.000E+00

     total cpu time spent up to now is       32.3 secs

     total energy              =     -36.74312993 Ry
     estimated scf accuracy    <          1.5E-09 Ry

     iteration # 13     ecut=    50.00 Ry     beta= 0.70
     Davidson diagonalization with overlap
     ethr =  1.87E-11,  avg # of iterations =  1.2

     negative rho (up, down):  5.459E-04 0.000E+00

     total cpu time spent up to now is       34.0 secs

     End of self-consistent calculation

          k = 0.0000 0.0000 0.0000 ( 41563 PWs)   bands (ev):

   -21.2658 -14.0637 -10.3223 -10.3223

     occupation numbers 
     1.0000   1.0000   1.0000   1.0000

          k = 0.0000 0.0000 0.3897 ( 41519 PWs)   bands (ev):

   -21.2334 -14.1318 -10.2683 -10.2683

     occupation numbers 
     1.0000   1.0000   1.0000   1.0000

          k = 0.0000 0.0000 0.7794 ( 41483 PWs)   bands (ev):

   -21.1368 -14.3304 -10.1066 -10.1066

     occupation numbers 
     1.0000   1.0000   1.0000   1.0000

          k = 0.0000 0.0000 1.1691 ( 41499 PWs)   bands (ev):

   -20.9768 -14.6449  -9.8374  -9.8374

     occupation numbers 
     1.0000   1.0000   1.0000   1.0000

          k = 0.0000 0.0000 1.5589 ( 41455 PWs)   bands (ev):

   -20.7548 -15.0540  -9.4611  -9.4611

     occupation numbers 
     1.0000   1.0000   1.0000   1.0000

          k = 0.0000 0.0000 1.9486 ( 41391 PWs)   bands (ev):

   -20.4732 -15.5346  -8.9785  -8.9785

     occupation numbers 
     1.0000   1.0000   1.0000   1.0000

          k = 0.0000 0.0000 2.3383 ( 41355 PWs)   bands (ev):

   -20.1349 -16.0637  -8.3905  -8.3905

     occupation numbers 
     1.0000   1.0000   1.0000   1.0000

          k = 0.0000 0.0000 2.7280 ( 41327 PWs)   bands (ev):

   -19.7436 -16.6208  -7.6986  -7.6986

     occupation numbers 
     1.0000   1.0000   1.0000   1.0000

          k = 0.0000 0.0000 3.1177 ( 41207 PWs)   bands (ev):

   -19.3043 -17.1877  -6.9054  -6.9054

     occupation numbers 
     1.0000   1.0000   1.0000   1.0000

          k = 0.0000 0.0000 3.5074 ( 41035 PWs)   bands (ev):

   -18.8240 -17.7482  -6.0172  -6.0172

     occupation numbers 
     1.0000   1.0000   1.0000   1.0000

          k = 0.0000 0.0000-3.8971 ( 41050 PWs)   bands (ev):

   -18.3758 -18.2237  -5.1942  -5.1942

     occupation numbers 
     1.0000   1.0000   1.0000   1.0000

     highest occupied level (ev):    -5.1942

!    total energy              =     -36.74312993 Ry

     total all-electron energy =      -152.271326 Ry
     estimated scf accuracy    <          4.2E-10 Ry

     The total energy is the sum of the following terms:
     one-electron contribution =    -101.91159265 Ry
     hartree contribution      =      51.74303332 Ry
     xc contribution           =      -9.08787142 Ry
     ewald contribution        =      34.85422322 Ry
     one-center paw contrib.   =     -12.34092239 Ry
      -> PAW hartree energy AE =       9.67704579 Ry
      -> PAW hartree energy PS =      -9.66806156 Ry
      -> PAW xc energy AE      =     -10.72535781 Ry
      -> PAW xc energy PS      =       4.54591213 Ry
      -> total E_H with PAW    =      51.75201755 Ry
      -> total E_XC with PAW   =     -15.26731710 Ry

     convergence has been achieved in  13 iterations

     negative rho (up, down):  5.459E-04 0.000E+00

     Forces acting on atoms (cartesian axes, Ry/au):

     atom    1 type  1   force =     0.00000000    0.00000000    0.02023020
     atom    2 type  1   force =     0.00000000    0.00000000   -0.02023020
     The non-local contrib.  to forces
     atom    1 type  1   force =     0.00000000    0.00000000   -0.08371816
     atom    2 type  1   force =     0.00000000    0.00000000    0.08373258
     The ionic contribution  to forces
     atom    1 type  1   force =     0.00000000    0.00000000   -0.39094676
     atom    2 type  1   force =     0.00000000    0.00000000    0.39094676
     The local contribution  to forces
     atom    1 type  1   force =     0.00000000    0.00000000    0.49105115
     atom    2 type  1   force =     0.00000000    0.00000000   -0.49107231
     The core correction contribution to forces
     atom    1 type  1   force =    -0.00000000   -0.00000000    0.00387767
     atom    2 type  1   force =    -0.00000000   -0.00000000   -0.00379730
     The Hubbard contrib.    to forces
     atom    1 type  1   force =     0.00000000    0.00000000    0.00000000
     atom    2 type  1   force =     0.00000000    0.00000000    0.00000000
     The SCF correction term to forces
     atom    1 type  1   force =     0.00000000   -0.00000000    0.00000385
     atom    2 type  1   force =     0.00000000    0.00000000   -0.00000240

     Total force =     0.028610     Total SCF correction =     0.000005


     Computing stress (Cartesian axis) and pressure


     negative rho (up, down):  5.459E-04 0.000E+00
          total   stress  (Ry/bohr**3)                   (kbar)     P=        0.01
  -0.00000012   0.00000000   0.00000000           -0.02        0.00        0.00
   0.00000000  -0.00000012   0.00000000            0.00       -0.02        0.00
   0.00000000   0.00000000   0.00000043            0.00        0.00        0.06

     kinetic stress (kbar)    226.85      0.00      0.00
                                0.00    226.85      0.00
                                0.00      0.00    156.11

     local   stress (kbar)     58.44     -0.00     -0.00
                               -0.00     58.44      0.00
                               -0.00      0.00  -2563.91

     nonloc. stress (kbar)     46.41      0.00      0.00
                                0.00     46.41      0.00
                                0.00      0.00     58.12

     hartree stress (kbar)      0.19      0.00     -0.00
                                0.00      0.19     -0.00
                               -0.00     -0.00   1098.54

     exc-cor stress (kbar)     -4.22     -0.00     -0.00
                               -0.00     -4.22      0.00
                               -0.00      0.00     -1.04

     corecor stress (kbar)    -47.37      0.00      0.00
                                0.00    -47.37      0.00
                                0.00      0.00    -48.62

     ewald   stress (kbar)   -280.31      0.00      0.00
                                0.00   -280.31      0.00
                                0.00      0.00   1300.87

     hubbard stress (kbar)      0.00      0.00      0.00
                                0.00      0.00      0.00
                                0.00      0.00      0.00

     DFT-D   stress (kbar)      0.00      0.00      0.00
                                0.00      0.00      0.00
                                0.00      0.00      0.00

     XDM     stress (kbar)      0.00      0.00      0.00
                                0.00      0.00      0.00
                                0.00      0.00      0.00

     dft-nl  stress (kbar)      0.00      0.00      0.00
                                0.00      0.00      0.00
                                0.00      0.00      0.00

     TS-vdW  stress (kbar)      0.00      0.00      0.00
                                0.00      0.00      0.00
                                0.00      0.00      0.00



     BFGS Geometry Optimization
     Energy error            =      0.0E+00
     Gradient error          =      2.0E-02

     number of scf cycles    =   1
     number of bfgs steps    =   0

     energy   new            =     -36.7431299269 Ry

     new trust radius        =       0.0202302010 bohr
     new conv_thr            =       0.0000000010 Ry


ATOMIC_POSITIONS (angstrom)
C            10.0000000000       10.0000000000        0.0050158758
C            10.0000000000       10.0000000000        1.2447099933



     Writing output data file ./outdir/carbyne.save/
     NEW-OLD atomic charge density approx. for the potential

     negative rho (up, down):  5.439E-04 0.000E+00

     total cpu time spent up to now is       40.4 secs

     Self-consistent Calculation

     iteration #  1     ecut=    50.00 Ry     beta= 0.70
     Davidson diagonalization with overlap
     ethr =  1.00E-06,  avg # of iterations =  6.7

     negative rho (up, down):  5.478E-04 0.000E+00

     total cpu time spent up to now is       42.7 secs

     total energy              =     -36.74235271 Ry
     estimated scf accuracy    <       0.00180070 Ry

     iteration #  2     ecut=    50.00 Ry     beta= 0.70
     Davidson diagonalization with overlap
     ethr =  2.25E-05,  avg # of iterations =  2.0

     negative rho (up, down):  5.482E-04 0.000E+00

     total cpu time spent up to now is       44.7 secs

     total energy              =     -36.74270341 Ry
     estimated scf accuracy    <       0.00000793 Ry

     iteration #  3     ecut=    50.00 Ry     beta= 0.70
     Davidson diagonalization with overlap
     ethr =  9.91E-08,  avg # of iterations =  4.3

     negative rho (up, down):  5.487E-04 0.000E+00

     total cpu time spent up to now is       46.8 secs

     total energy              =     -36.74273531 Ry
     estimated scf accuracy    <       0.00001150 Ry

     iteration #  4     ecut=    50.00 Ry     beta= 0.70
     Davidson diagonalization with overlap
     ethr =  9.91E-08,  avg # of iterations =  1.9

     negative rho (up, down):  5.488E-04 0.000E+00

     total cpu time spent up to now is       48.7 secs

     total energy              =     -36.74273527 Ry
     estimated scf accuracy    <       0.00000145 Ry

     iteration #  5     ecut=    50.00 Ry     beta= 0.70
     Davidson diagonalization with overlap
     ethr =  1.82E-08,  avg # of iterations =  3.0

     negative rho (up, down):  5.488E-04 0.000E+00

     total cpu time spent up to now is       50.8 secs

     total energy              =     -36.74273586 Ry
     estimated scf accuracy    <       0.00000063 Ry

     iteration #  6     ecut=    50.00 Ry     beta= 0.70
     Davidson diagonalization with overlap
     ethr =  7.83E-09,  avg # of iterations =  1.8

     negative rho (up, down):  5.488E-04 0.000E+00

     total cpu time spent up to now is       52.7 secs

     total energy              =     -36.74273590 Ry
     estimated scf accuracy    <       0.00000003 Ry

     iteration #  7     ecut=    50.00 Ry     beta= 0.70
     Davidson diagonalization with overlap
     ethr =  3.92E-10,  avg # of iterations =  2.8

     negative rho (up, down):  5.488E-04 0.000E+00

     total cpu time spent up to now is       54.5 secs

     End of self-consistent calculation

          k = 0.0000 0.0000 0.0000 ( 41563 PWs)   bands (ev):

   -21.2458 -14.0341 -10.3104 -10.3104

     occupation numbers 
     1.0000   1.0000   1.0000   1.0000

          k = 0.0000 0.0000 0.3897 ( 41519 PWs)   bands (ev):

   -21.2136 -14.1018 -10.2565 -10.2565

     occupation numbers 
     1.0000   1.0000   1.0000   1.0000

          k = 0.0000 0.0000 0.7794 ( 41483 PWs)   bands (ev):

   -21.1173 -14.2998 -10.0952 -10.0952

     occupation numbers 
     1.0000   1.0000   1.0000   1.0000

          k = 0.0000 0.0000 1.1691 ( 41499 PWs)   bands (ev):

   -20.9578 -14.6131  -9.8267  -9.8267

     occupation numbers 
     1.0000   1.0000   1.0000   1.0000

          k = 0.0000 0.0000 1.5589 ( 41455 PWs)   bands (ev):

   -20.7367 -15.0207  -9.4514  -9.4514

     occupation numbers 
     1.0000   1.0000   1.0000   1.0000

          k = 0.0000 0.0000 1.9486 ( 41391 PWs)   bands (ev):

   -20.4565 -15.4992  -8.9705  -8.9705

     occupation numbers 
     1.0000   1.0000   1.0000   1.0000

          k = 0.0000 0.0000 2.3383 ( 41355 PWs)   bands (ev):

   -20.1203 -16.0255  -8.3852  -8.3852

     occupation numbers 
     1.0000   1.0000   1.0000   1.0000

          k = 0.0000 0.0000 2.7280 ( 41327 PWs)   bands (ev):

   -19.7329 -16.5781  -7.6980  -7.6980

     occupation numbers 
     1.0000   1.0000   1.0000   1.0000

          k = 0.0000 0.0000 3.1177 ( 41207 PWs)   bands (ev):

   -19.3014 -17.1369  -6.9143  -6.9143

     occupation numbers 
     1.0000   1.0000   1.0000   1.0000

          k = 0.0000 0.0000 3.5074 ( 41035 PWs)   bands (ev):

   -18.8433 -17.6749  -6.0540  -6.0540

     occupation numbers 
     1.0000   1.0000   1.0000   1.0000

          k = 0.0000 0.0000-3.8971 ( 41050 PWs)   bands (ev):

   -18.5136 -18.0319  -5.3873  -5.3873

     occupation numbers 
     1.0000   1.0000   1.0000   1.0000

     highest occupied level (ev):    -5.3873

!    total energy              =     -36.74273591 Ry

     total all-electron energy =      -152.270932 Ry
     estimated scf accuracy    <          4.2E-10 Ry

     The total energy is the sum of the following terms:
     one-electron contribution =    -101.95733311 Ry
     hartree contribution      =      51.77294009 Ry
     xc contribution           =      -9.09466617 Ry
     ewald contribution        =      34.87779673 Ry
     one-center paw contrib.   =     -12.34147345 Ry
      -> PAW hartree energy AE =       9.72902729 Ry
      -> PAW hartree energy PS =      -9.72000383 Ry
      -> PAW xc energy AE      =     -10.73794964 Ry
      -> PAW xc energy PS      =       4.55818982 Ry
      -> total E_H with PAW    =      51.78196356 Ry
      -> total E_XC with PAW   =     -15.27442600 Ry

     convergence has been achieved in   7 iterations

     negative rho (up, down):  5.488E-04 0.000E+00

     Forces acting on atoms (cartesian axes, Ry/au):

     atom    1 type  1   force =     0.00000000    0.00000000   -0.04097548
     atom    2 type  1   force =     0.00000000    0.00000000    0.04097548
     The non-local contrib.  to forces
     atom    1 type  1   force =     0.00000000    0.00000000   -0.18039397
     atom    2 type  1   force =     0.00000000    0.00000000    0.18039194
     The ionic contribution  to forces
     atom    1 type  1   force =     0.00000000    0.00000000   -0.77462563
     atom    2 type  1   force =    -0.00000000   -0.00000000    0.77462563
     The local contribution  to forces
     atom    1 type  1   force =     0.00000000    0.00000000    0.90655268
     atom    2 type  1   force =     0.00000000    0.00000000   -0.90655154
     The core correction contribution to forces
     atom    1 type  1   force =     0.00000000    0.00000000    0.00751937
     atom    2 type  1   force =     0.00000000    0.00000000   -0.00751765
     The Hubbard contrib.    to forces
     atom    1 type  1   force =     0.00000000    0.00000000    0.00000000
     atom    2 type  1   force =     0.00000000    0.00000000    0.00000000
     The SCF correction term to forces
     atom    1 type  1   force =     0.00000000   -0.00000000   -0.00002749
     atom    2 type  1   force =     0.00000000   -0.00000000    0.00002750

     Total force =     0.057948     Total SCF correction =     0.000039


     Computing stress (Cartesian axis) and pressure


     negative rho (up, down):  5.488E-04 0.000E+00
          total   stress  (Ry/bohr**3)                   (kbar)     P=        0.26
  -0.00000012   0.00000000   0.00000000           -0.02        0.00        0.00
   0.00000000  -0.00000012   0.00000000            0.00       -0.02        0.00
   0.00000000   0.00000000   0.00000554            0.00        0.00        0.81

     kinetic stress (kbar)    227.12      0.00      0.00
                                0.00    227.12      0.00
                                0.00      0.00    156.36

     local   stress (kbar)     57.92      0.00      0.00
                                0.00     57.92     -0.00
                                0.00     -0.00  -2564.14

     nonloc. stress (kbar)     46.48      0.00      0.00
                                0.00     46.48      0.00
                                0.00      0.00     58.23

     hartree stress (kbar)      0.42      0.00      0.00
                                0.00      0.42     -0.00
                                0.00     -0.00   1098.72

     exc-cor stress (kbar)     -4.26      0.00      0.00
                                0.00     -4.26     -0.00
                                0.00     -0.00     -1.09

     corecor stress (kbar)    -47.38      0.00     -0.00
                                0.00    -47.38      0.00
                               -0.00      0.00    -48.64

     ewald   stress (kbar)   -280.31      0.00      0.00
                                0.00   -280.31      0.00
                                0.00      0.00   1301.37

     hubbard stress (kbar)      0.00      0.00      0.00
                                0.00      0.00      0.00
                                0.00      0.00      0.00

     DFT-D   stress (kbar)      0.00      0.00      0.00
                                0.00      0.00      0.00
                                0.00      0.00      0.00

     XDM     stress (kbar)      0.00      0.00      0.00
                                0.00      0.00      0.00
                                0.00      0.00      0.00

     dft-nl  stress (kbar)      0.00      0.00      0.00
                                0.00      0.00      0.00
                                0.00      0.00      0.00

     TS-vdW  stress (kbar)      0.00      0.00      0.00
                                0.00      0.00      0.00
                                0.00      0.00      0.00


     Energy error            =      3.9E-04
     Gradient error          =      4.1E-02

     number of scf cycles    =   2
     number of bfgs steps    =   1

     energy   old            =     -36.7431299269 Ry
     energy   new            =     -36.7427359102 Ry

     CASE: energy  _new > energy  _old

     new trust radius        =       0.0068281800 bohr
     new conv_thr            =       0.0000000010 Ry


ATOMIC_POSITIONS (angstrom)
C            10.0000000000       10.0000000000       -0.0020761684
C            10.0000000000       10.0000000000        1.2518020375



     Writing output data file ./outdir/carbyne.save/
     NEW-OLD atomic charge density approx. for the potential

     negative rho (up, down):  5.459E-04 0.000E+00

     total cpu time spent up to now is       60.8 secs

     Self-consistent Calculation

     iteration #  1     ecut=    50.00 Ry     beta= 0.70
     Davidson diagonalization with overlap
     ethr =  1.00E-06,  avg # of iterations =  6.2

     negative rho (up, down):  5.459E-04 0.000E+00

     total cpu time spent up to now is       63.1 secs

     total energy              =     -36.74310531 Ry
     estimated scf accuracy    <       0.00078564 Ry

     iteration #  2     ecut=    50.00 Ry     beta= 0.70
     Davidson diagonalization with overlap
     ethr =  9.82E-06,  avg # of iterations =  2.0

     negative rho (up, down):  5.467E-04 0.000E+00

     total cpu time spent up to now is       65.0 secs

     total energy              =     -36.74325788 Ry
     estimated scf accuracy    <       0.00000283 Ry

     iteration #  3     ecut=    50.00 Ry     beta= 0.70
     Davidson diagonalization with overlap
     ethr =  3.54E-08,  avg # of iterations =  4.9

     negative rho (up, down):  5.470E-04 0.000E+00

     total cpu time spent up to now is       67.2 secs

     total energy              =     -36.74327153 Ry
     estimated scf accuracy    <       0.00000527 Ry

     iteration #  4     ecut=    50.00 Ry     beta= 0.70
     Davidson diagonalization with overlap
     ethr =  3.54E-08,  avg # of iterations =  1.8

     negative rho (up, down):  5.468E-04 0.000E+00

     total cpu time spent up to now is       69.1 secs

     total energy              =     -36.74327136 Ry
     estimated scf accuracy    <       0.00000083 Ry

     iteration #  5     ecut=    50.00 Ry     beta= 0.70
     Davidson diagonalization with overlap
     ethr =  1.04E-08,  avg # of iterations =  2.6

     negative rho (up, down):  5.469E-04 0.000E+00

     total cpu time spent up to now is       71.1 secs

     total energy              =     -36.74327161 Ry
     estimated scf accuracy    <       0.00000021 Ry

     iteration #  6     ecut=    50.00 Ry     beta= 0.70
     Davidson diagonalization with overlap
     ethr =  2.58E-09,  avg # of iterations =  1.9

     negative rho (up, down):  5.469E-04 0.000E+00

     total cpu time spent up to now is       73.1 secs

     total energy              =     -36.74327163 Ry
     estimated scf accuracy    <          6.9E-09 Ry

     iteration #  7     ecut=    50.00 Ry     beta= 0.70
     Davidson diagonalization with overlap
     ethr =  8.59E-11,  avg # of iterations =  3.0

     negative rho (up, down):  5.469E-04 0.000E+00

     total cpu time spent up to now is       75.2 secs

     total energy              =     -36.74327164 Ry
     estimated scf accuracy    <          1.8E-09 Ry

     iteration #  8     ecut=    50.00 Ry     beta= 0.70
     Davidson diagonalization with overlap
     ethr =  2.22E-11,  avg # of iterations =  2.1

     negative rho (up, down):  5.469E-04 0.000E+00

     total cpu time spent up to now is       77.0 secs

     End of self-consistent calculation

          k = 0.0000 0.0000 0.0000 ( 41563 PWs)   bands (ev):

   -21.2597 -14.0556 -10.3186 -10.3186

     occupation numbers 
     1.0000   1.0000   1.0000   1.0000

          k = 0.0000 0.0000 0.3897 ( 41519 PWs)   bands (ev):

   -21.2274 -14.1236 -10.2647 -10.2647

     occupation numbers 
     1.0000   1.0000   1.0000   1.0000

          k = 0.0000 0.0000 0.7794 ( 41483 PWs)   bands (ev):

   -21.1309 -14.3221 -10.1031 -10.1031

     occupation numbers 
     1.0000   1.0000   1.0000   1.0000

          k = 0.0000 0.0000 1.1691 ( 41499 PWs)   bands (ev):

   -20.9709 -14.6363  -9.8341  -9.8341

     occupation numbers 
     1.0000   1.0000   1.0000   1.0000

          k = 0.0000 0.0000 1.5589 ( 41455 PWs)   bands (ev):

   -20.7492 -15.0451  -9.4581  -9.4581

     occupation numbers 
     1.0000   1.0000   1.0000   1.0000

          k = 0.0000 0.0000 1.9486 ( 41391 PWs)   bands (ev):

   -20.4679 -15.5252  -8.9758  -8.9758

     occupation numbers 
     1.0000   1.0000   1.0000   1.0000

          k = 0.0000 0.0000 2.3383 ( 41355 PWs)   bands (ev):

   -20.1300 -16.0537  -8.3885  -8.3885

     occupation numbers 
     1.0000   1.0000   1.0000   1.0000

          k = 0.0000 0.0000 2.7280 ( 41327 PWs)   bands (ev):

   -19.7396 -16.6098  -7.6979  -7.6979

     occupation numbers 
     1.0000   1.0000   1.0000   1.0000

          k = 0.0000 0.0000 3.1177 ( 41207 PWs)   bands (ev):

   -19.3020 -17.1749  -6.9071  -6.9071

     occupation numbers 
     1.0000   1.0000   1.0000   1.0000

          k = 0.0000 0.0000 3.5074 ( 41035 PWs)   bands (ev):

   -18.8268 -17.7302  -6.0263  -6.0263

     occupation numbers 
     1.0000   1.0000   1.0000   1.0000

          k = 0.0000 0.0000-3.8971 ( 41050 PWs)   bands (ev):

   -18.4233 -18.1610  -5.2603  -5.2603

     occupation numbers 
     1.0000   1.0000   1.0000   1.0000

     highest occupied level (ev):    -5.2603

!    total energy              =     -36.74327164 Ry

     total all-electron energy =      -152.271467 Ry
     estimated scf accuracy    <          6.8E-11 Ry

     The total energy is the sum of the following terms:
     one-electron contribution =    -101.92416965 Ry
     hartree contribution      =      51.75126532 Ry
     xc contribution           =      -9.08974418 Ry
     ewald contribution        =      34.86044483 Ry
     one-center paw contrib.   =     -12.34106796 Ry
      -> PAW hartree energy AE =       9.69105755 Ry
      -> PAW hartree energy PS =      -9.68206296 Ry
      -> PAW xc energy AE      =     -10.72874995 Ry
      -> PAW xc energy PS      =       4.54922167 Ry
      -> total E_H with PAW    =      51.76025992 Ry
      -> total E_XC with PAW   =     -15.26927245 Ry

     convergence has been achieved in   8 iterations

     negative rho (up, down):  5.469E-04 0.000E+00

     Forces acting on atoms (cartesian axes, Ry/au):

     atom    1 type  1   force =     0.00000000    0.00000000    0.00042405
     atom    2 type  1   force =     0.00000000    0.00000000   -0.00042405
     The non-local contrib.  to forces
     atom    1 type  1   force =     0.00000000    0.00000000   -0.11617678
     atom    2 type  1   force =     0.00000000    0.00000000    0.11618536
     The ionic contribution  to forces
     atom    1 type  1   force =    -0.00000000   -0.00000000   -0.52024675
     atom    2 type  1   force =     0.00000000    0.00000000    0.52024675
     The local contribution  to forces
     atom    1 type  1   force =     0.00000000    0.00000000    0.63177816
     atom    2 type  1   force =     0.00000000    0.00000000   -0.63178936
     The core correction contribution to forces
     atom    1 type  1   force =    -0.00000000   -0.00000000    0.00510811
     atom    2 type  1   force =    -0.00000000   -0.00000000   -0.00505106
     The Hubbard contrib.    to forces
     atom    1 type  1   force =     0.00000000    0.00000000    0.00000000
     atom    2 type  1   force =     0.00000000    0.00000000    0.00000000
     The SCF correction term to forces
     atom    1 type  1   force =     0.00000000    0.00000000   -0.00001148
     atom    2 type  1   force =     0.00000000    0.00000000    0.00001147

     Total force =     0.000600     Total SCF correction =     0.000016


     Computing stress (Cartesian axis) and pressure


     negative rho (up, down):  5.469E-04 0.000E+00
          total   stress  (Ry/bohr**3)                   (kbar)     P=        0.07
  -0.00000012   0.00000000   0.00000000           -0.02        0.00        0.00
   0.00000000  -0.00000012   0.00000000            0.00       -0.02        0.00
   0.00000000   0.00000000   0.00000174            0.00        0.00        0.26

     kinetic stress (kbar)    226.92      0.00      0.00
                                0.00    226.92      0.00
                                0.00      0.00    156.17

     local   stress (kbar)     58.30     -0.00      0.00
                               -0.00     58.30     -0.00
                                0.00     -0.00  -2563.97

     nonloc. stress (kbar)     46.43      0.00      0.00
                                0.00     46.43      0.00
                                0.00      0.00     58.15

     hartree stress (kbar)      0.26     -0.00     -0.00
                               -0.00      0.26     -0.00
                               -0.00     -0.00   1098.59

     exc-cor stress (kbar)     -4.23     -0.00      0.00
                               -0.00     -4.23      0.00
                                0.00      0.00     -1.06

     corecor stress (kbar)    -47.37      0.00     -0.00
                                0.00    -47.37     -0.00
                               -0.00     -0.00    -48.62

     ewald   stress (kbar)   -280.31      0.00     -0.00
                                0.00   -280.31     -0.00
                               -0.00     -0.00   1301.00

     hubbard stress (kbar)      0.00      0.00      0.00
                                0.00      0.00      0.00
                                0.00      0.00      0.00

     DFT-D   stress (kbar)      0.00      0.00      0.00
                                0.00      0.00      0.00
                                0.00      0.00      0.00

     XDM     stress (kbar)      0.00      0.00      0.00
                                0.00      0.00      0.00
                                0.00      0.00      0.00

     dft-nl  stress (kbar)      0.00      0.00      0.00
                                0.00      0.00      0.00
                                0.00      0.00      0.00

     TS-vdW  stress (kbar)      0.00      0.00      0.00
                                0.00      0.00      0.00
                                0.00      0.00      0.00


     Energy error            =      1.4E-04
     Gradient error          =      4.2E-04

     number of scf cycles    =   3
     number of bfgs steps    =   1

     energy   old            =     -36.7431299269 Ry
     energy   new            =     -36.7432716398 Ry

     CASE: energy  _new < energy  _old

     new trust radius        =       0.0001461900 bohr
     new conv_thr            =       0.0000000010 Ry


ATOMIC_POSITIONS (angstrom)
C            10.0000000000       10.0000000000       -0.0019988079
C            10.0000000000       10.0000000000        1.2517246770



     Writing output data file ./outdir/carbyne.save/
     NEW-OLD atomic charge density approx. for the potential

     negative rho (up, down):  5.469E-04 0.000E+00

     total cpu time spent up to now is       91.8 secs

     Self-consistent Calculation

     iteration #  1     ecut=    50.00 Ry     beta= 0.70
     Davidson diagonalization with overlap
     ethr =  1.00E-06,  avg # of iterations =  2.0

     Threshold (ethr) on eigenvalues was too large:
     Diagonalizing with lowered threshold

     Davidson diagonalization with overlap
     ethr =  2.68E-10,  avg # of iterations =  4.1

     negative rho (up, down):  5.469E-04 0.000E+00

     total cpu time spent up to now is       94.5 secs

     total energy              =     -36.74327168 Ry
     estimated scf accuracy    <       0.00000009 Ry

     iteration #  2     ecut=    50.00 Ry     beta= 0.70
     Davidson diagonalization with overlap
     ethr =  1.09E-09,  avg # of iterations =  2.0

     negative rho (up, down):  5.469E-04 0.000E+00

     total cpu time spent up to now is       96.2 secs

     End of self-consistent calculation

          k = 0.0000 0.0000 0.0000 ( 41563 PWs)   bands (ev):

   -21.2595 -14.0553 -10.3185 -10.3185

     occupation numbers 
     1.0000   1.0000   1.0000   1.0000

          k = 0.0000 0.0000 0.3897 ( 41519 PWs)   bands (ev):

   -21.2272 -14.1233 -10.2646 -10.2646

     occupation numbers 
     1.0000   1.0000   1.0000   1.0000

          k = 0.0000 0.0000 0.7794 ( 41483 PWs)   bands (ev):

   -21.1306 -14.3218 -10.1029 -10.1029

     occupation numbers 
     1.0000   1.0000   1.0000   1.0000

          k = 0.0000 0.0000 1.1691 ( 41499 PWs)   bands (ev):

   -20.9707 -14.6360  -9.8339  -9.8339

     occupation numbers 
     1.0000   1.0000   1.0000   1.0000

          k = 0.0000 0.0000 1.5589 ( 41455 PWs)   bands (ev):

   -20.7490 -15.0448  -9.4579  -9.4579

     occupation numbers 
     1.0000   1.0000   1.0000   1.0000

          k = 0.0000 0.0000 1.9486 ( 41391 PWs)   bands (ev):

   -20.4677 -15.5249  -8.9757  -8.9757

     occupation numbers 
     1.0000   1.0000   1.0000   1.0000

          k = 0.0000 0.0000 2.3383 ( 41355 PWs)   bands (ev):

   -20.1298 -16.0533  -8.3884  -8.3884

     occupation numbers 
     1.0000   1.0000   1.0000   1.0000

          k = 0.0000 0.0000 2.7280 ( 41327 PWs)   bands (ev):

   -19.7394 -16.6094  -7.6978  -7.6978

     occupation numbers 
     1.0000   1.0000   1.0000   1.0000

          k = 0.0000 0.0000 3.1177 ( 41207 PWs)   bands (ev):

   -19.3018 -17.1745  -6.9071  -6.9071

     occupation numbers 
     1.0000   1.0000   1.0000   1.0000

          k = 0.0000 0.0000 3.5074 ( 41035 PWs)   bands (ev):

   -18.8268 -17.7296  -6.0264  -6.0264

     occupation numbers 
     1.0000   1.0000   1.0000   1.0000

          k = 0.0000 0.0000-3.8971 ( 41050 PWs)   bands (ev):

   -18.4240 -18.1597  -5.2615  -5.2615

     occupation numbers 
     1.0000   1.0000   1.0000   1.0000

     highest occupied level (ev):    -5.2615

!    total energy              =     -36.74327170 Ry

     total all-electron energy =      -152.271467 Ry
     estimated scf accuracy    <          2.4E-10 Ry

     The total energy is the sum of the following terms:
     one-electron contribution =    -101.92444465 Ry
     hartree contribution      =      51.75143058 Ry
     xc contribution           =      -9.08978384 Ry
     ewald contribution        =      34.86059735 Ry
     one-center paw contrib.   =     -12.34107113 Ry
      -> PAW hartree energy AE =       9.69137576 Ry
      -> PAW hartree energy PS =      -9.68238094 Ry
      -> PAW xc energy AE      =     -10.72882699 Ry
      -> PAW xc energy PS      =       4.54929690 Ry
      -> total E_H with PAW    =      51.76042540 Ry
      -> total E_XC with PAW   =     -15.26931393 Ry

     convergence has been achieved in   2 iterations

     negative rho (up, down):  5.469E-04 0.000E+00

     Forces acting on atoms (cartesian axes, Ry/au):

     atom    1 type  1   force =     0.00000000    0.00000000    0.00004383
     atom    2 type  1   force =     0.00000000    0.00000000   -0.00004383
     The non-local contrib.  to forces
     atom    1 type  1   force =     0.00000000    0.00000000   -0.11686221
     atom    2 type  1   force =     0.00000000    0.00000000    0.11687070
     The ionic contribution  to forces
     atom    1 type  1   force =     0.00000000    0.00000000   -0.52301694
     atom    2 type  1   force =    -0.00000000   -0.00000000    0.52301694
     The local contribution  to forces
     atom    1 type  1   force =     0.00000000    0.00000000    0.63480194
     atom    2 type  1   force =     0.00000000    0.00000000   -0.63481301
     The core correction contribution to forces
     atom    1 type  1   force =    -0.00000000   -0.00000000    0.00513395
     atom    2 type  1   force =    -0.00000000   -0.00000000   -0.00507738
     The Hubbard contrib.    to forces
     atom    1 type  1   force =     0.00000000    0.00000000    0.00000000
     atom    2 type  1   force =     0.00000000    0.00000000    0.00000000
     The SCF correction term to forces
     atom    1 type  1   force =    -0.00000000    0.00000000    0.00001408
     atom    2 type  1   force =    -0.00000000    0.00000000   -0.00001410

     Total force =     0.000062     Total SCF correction =     0.000020
     SCF correction compared to forces is large: reduce conv_thr to get better values


     Computing stress (Cartesian axis) and pressure


     negative rho (up, down):  5.469E-04 0.000E+00
          total   stress  (Ry/bohr**3)                   (kbar)     P=        0.07
  -0.00000012   0.00000000   0.00000000           -0.02        0.00        0.00
   0.00000000  -0.00000012   0.00000000            0.00       -0.02        0.00
   0.00000000   0.00000000   0.00000177            0.00        0.00        0.26

     kinetic stress (kbar)    226.92      0.00      0.00
                                0.00    226.92      0.00
                                0.00      0.00    156.17

     local   stress (kbar)     58.29     -0.00     -0.00
                               -0.00     58.29     -0.00
                               -0.00     -0.00  -2563.97

     nonloc. stress (kbar)     46.43      0.00      0.00
                                0.00     46.43      0.00
                                0.00      0.00     58.15

     hartree stress (kbar)      0.26      0.00     -0.00
                                0.00      0.26     -0.00
                               -0.00     -0.00   1098.59

     exc-cor stress (kbar)     -4.23      0.00      0.00
                                0.00     -4.23      0.00
                                0.00      0.00     -1.06

     corecor stress (kbar)    -47.37     -0.00     -0.00
                               -0.00    -47.37     -0.00
                               -0.00     -0.00    -48.62

     ewald   stress (kbar)   -280.31      0.00      0.00
                                0.00   -280.31      0.00
                                0.00      0.00   1301.00

     hubbard stress (kbar)      0.00      0.00      0.00
                                0.00      0.00      0.00
                                0.00      0.00      0.00

     DFT-D   stress (kbar)      0.00      0.00      0.00
                                0.00      0.00      0.00
                                0.00      0.00      0.00

     XDM     stress (kbar)      0.00      0.00      0.00
                                0.00      0.00      0.00
                                0.00      0.00      0.00

     dft-nl  stress (kbar)      0.00      0.00      0.00
                                0.00      0.00      0.00
                                0.00      0.00      0.00

     TS-vdW  stress (kbar)      0.00      0.00      0.00
                                0.00      0.00      0.00
                                0.00      0.00      0.00


     Energy error            =      5.8E-08
     Gradient error          =      4.4E-05

     number of scf cycles    =   4
     number of bfgs steps    =   2

     energy   old            =     -36.7432716398 Ry
     energy   new            =     -36.7432716983 Ry

     CASE: energy  _new < energy  _old

     small trust_radius: resetting bfgs history

     new trust radius        =       0.0000438343 bohr
     new conv_thr            =            5.8E-11 Ry


ATOMIC_POSITIONS (angstrom)
C            10.0000000000       10.0000000000       -0.0019756118
C            10.0000000000       10.0000000000        1.2517014809



     Writing output data file ./outdir/carbyne.save/
     NEW-OLD atomic charge density approx. for the potential

     negative rho (up, down):  5.469E-04 0.000E+00

     total cpu time spent up to now is      108.5 secs

     Self-consistent Calculation

     iteration #  1     ecut=    50.00 Ry     beta= 0.70
     Davidson diagonalization with overlap
     ethr =  1.00E-06,  avg # of iterations =  1.4

     Threshold (ethr) on eigenvalues was too large:
     Diagonalizing with lowered threshold

     Davidson diagonalization with overlap
     ethr =  1.62E-11,  avg # of iterations =  4.5

     negative rho (up, down):  5.469E-04 0.000E+00

     total cpu time spent up to now is      111.5 secs

     total energy              =     -36.74327169 Ry
     estimated scf accuracy    <          6.1E-09 Ry

     iteration #  2     ecut=    50.00 Ry     beta= 0.70
     Davidson diagonalization with overlap
     ethr =  7.64E-11,  avg # of iterations =  2.1

     negative rho (up, down):  5.469E-04 0.000E+00

     total cpu time spent up to now is      113.2 secs

     End of self-consistent calculation

          k = 0.0000 0.0000 0.0000 ( 41563 PWs)   bands (ev):

   -21.2595 -14.0553 -10.3185 -10.3185

     occupation numbers 
     1.0000   1.0000   1.0000   1.0000

          k = 0.0000 0.0000 0.3897 ( 41519 PWs)   bands (ev):

   -21.2272 -14.1233 -10.2646 -10.2646

     occupation numbers 
     1.0000   1.0000   1.0000   1.0000

          k = 0.0000 0.0000 0.7794 ( 41483 PWs)   bands (ev):

   -21.1307 -14.3218 -10.1030 -10.1030

     occupation numbers 
     1.0000   1.0000   1.0000   1.0000

          k = 0.0000 0.0000 1.1691 ( 41499 PWs)   bands (ev):

   -20.9707 -14.6360  -9.8339  -9.8339

     occupation numbers 
     1.0000   1.0000   1.0000   1.0000

          k = 0.0000 0.0000 1.5589 ( 41455 PWs)   bands (ev):

   -20.7490 -15.0448  -9.4579  -9.4579

     occupation numbers 
     1.0000   1.0000   1.0000   1.0000

          k = 0.0000 0.0000 1.9486 ( 41391 PWs)   bands (ev):

   -20.4677 -15.5249  -8.9757  -8.9757

     occupation numbers 
     1.0000   1.0000   1.0000   1.0000

          k = 0.0000 0.0000 2.3383 ( 41355 PWs)   bands (ev):

   -20.1298 -16.0533  -8.3884  -8.3884

     occupation numbers 
     1.0000   1.0000   1.0000   1.0000

          k = 0.0000 0.0000 2.7280 ( 41327 PWs)   bands (ev):

   -19.7394 -16.6094  -7.6978  -7.6978

     occupation numbers 
     1.0000   1.0000   1.0000   1.0000

          k = 0.0000 0.0000 3.1177 ( 41207 PWs)   bands (ev):

   -19.3019 -17.1744  -6.9071  -6.9071

     occupation numbers 
     1.0000   1.0000   1.0000   1.0000

          k = 0.0000 0.0000 3.5074 ( 41035 PWs)   bands (ev):

   -18.8269 -17.7295  -6.0265  -6.0265

     occupation numbers 
     1.0000   1.0000   1.0000   1.0000

          k = 0.0000 0.0000-3.8971 ( 41050 PWs)   bands (ev):

   -18.4245 -18.1593  -5.2620  -5.2620

     occupation numbers 
     1.0000   1.0000   1.0000   1.0000

     highest occupied level (ev):    -5.2620

!    total energy              =     -36.74327169 Ry

     total all-electron energy =      -152.271467 Ry
     estimated scf accuracy    <          3.8E-11 Ry

     The total energy is the sum of the following terms:
     one-electron contribution =    -101.92454853 Ry
     hartree contribution      =      51.75150582 Ry
     xc contribution           =      -9.08979977 Ry
     ewald contribution        =      34.86064324 Ry
     one-center paw contrib.   =     -12.34107244 Ry
      -> PAW hartree energy AE =       9.69148797 Ry
      -> PAW hartree energy PS =      -9.68249306 Ry
      -> PAW xc energy AE      =     -10.72885422 Ry
      -> PAW xc energy PS      =       4.54932338 Ry
      -> total E_H with PAW    =      51.76050073 Ry
      -> total E_XC with PAW   =     -15.26933061 Ry

     convergence has been achieved in   2 iterations

     negative rho (up, down):  5.469E-04 0.000E+00

     Forces acting on atoms (cartesian axes, Ry/au):

     atom    1 type  1   force =     0.00000000    0.00000000   -0.00013415
     atom    2 type  1   force =     0.00000000    0.00000000    0.00013415
     The non-local contrib.  to forces
     atom    1 type  1   force =     0.00000000    0.00000000   -0.11707911
     atom    2 type  1   force =     0.00000000    0.00000000    0.11708758
     The ionic contribution  to forces
     atom    1 type  1   force =     0.00000000    0.00000000   -0.52384759
     atom    2 type  1   force =    -0.00000000   -0.00000000    0.52384759
     The local contribution  to forces
     atom    1 type  1   force =     0.00000000    0.00000000    0.63567169
     atom    2 type  1   force =     0.00000000    0.00000000   -0.63568270
     The core correction contribution to forces
     atom    1 type  1   force =    -0.00000000   -0.00000000    0.00514213
     atom    2 type  1   force =    -0.00000000   -0.00000000   -0.00508572
     The Hubbard contrib.    to forces
     atom    1 type  1   force =     0.00000000    0.00000000    0.00000000
     atom    2 type  1   force =     0.00000000    0.00000000    0.00000000
     The SCF correction term to forces
     atom    1 type  1   force =    -0.00000000    0.00000000    0.00000565
     atom    2 type  1   force =    -0.00000000    0.00000000   -0.00000567

     Total force =     0.000190     Total SCF correction =     0.000008


     Computing stress (Cartesian axis) and pressure


     negative rho (up, down):  5.469E-04 0.000E+00
          total   stress  (Ry/bohr**3)                   (kbar)     P=        0.08
  -0.00000012   0.00000000   0.00000000           -0.02        0.00        0.00
   0.00000000  -0.00000012   0.00000000            0.00       -0.02        0.00
   0.00000000   0.00000000   0.00000178            0.00        0.00        0.26

     kinetic stress (kbar)    226.92      0.00      0.00
                                0.00    226.92      0.00
                                0.00      0.00    156.17

     local   stress (kbar)     58.29     -0.00      0.00
                               -0.00     58.29     -0.00
                                0.00     -0.00  -2563.98

     nonloc. stress (kbar)     46.43      0.00      0.00
                                0.00     46.43      0.00
                                0.00      0.00     58.15

     hartree stress (kbar)      0.26      0.00      0.00
                                0.00      0.26     -0.00
                                0.00     -0.00   1098.59

     exc-cor stress (kbar)     -4.23     -0.00      0.00
                               -0.00     -4.23      0.00
                                0.00      0.00     -1.06

     corecor stress (kbar)    -47.37      0.00     -0.00
                                0.00    -47.37     -0.00
                               -0.00     -0.00    -48.62

     ewald   stress (kbar)   -280.31      0.00      0.00
                                0.00   -280.31      0.00
                                0.00      0.00   1301.00

     hubbard stress (kbar)      0.00      0.00      0.00
                                0.00      0.00      0.00
                                0.00      0.00      0.00

     DFT-D   stress (kbar)      0.00      0.00      0.00
                                0.00      0.00      0.00
                                0.00      0.00      0.00

     XDM     stress (kbar)      0.00      0.00      0.00
                                0.00      0.00      0.00
                                0.00      0.00      0.00

     dft-nl  stress (kbar)      0.00      0.00      0.00
                                0.00      0.00      0.00
                                0.00      0.00      0.00

     TS-vdW  stress (kbar)      0.00      0.00      0.00
                                0.00      0.00      0.00
                                0.00      0.00      0.00


     Energy error            =      7.5E-09
     Gradient error          =      1.3E-04

     number of scf cycles    =   5
     number of bfgs steps    =   3

     energy   old            =     -36.7432716983 Ry
     energy   new            =     -36.7432716909 Ry

     CASE: energy  _new > energy  _old

     new trust radius        =       0.0000074451 bohr

     trust_radius < trust_radius_min

     resetting bfgs history

     Message from routine bfgs:
     history already reset at previous step: stopping
     new conv_thr            =            5.8E-11 Ry


ATOMIC_POSITIONS (angstrom)
C            10.0000000000       10.0000000000       -0.0019756118
C            10.0000000000       10.0000000000        1.2517014809



     Writing output data file ./outdir/carbyne.save/
     NEW-OLD atomic charge density approx. for the potential

     negative rho (up, down):  5.469E-04 0.000E+00

     total cpu time spent up to now is      120.0 secs

     Self-consistent Calculation

     iteration #  1     ecut=    50.00 Ry     beta= 0.70
     Davidson diagonalization with overlap
     ethr =  1.00E-06,  avg # of iterations =  1.0

     Threshold (ethr) on eigenvalues was too large:
     Diagonalizing with lowered threshold

     Davidson diagonalization with overlap
     ethr =  6.75E-14,  avg # of iterations =  4.5

     negative rho (up, down):  5.469E-04 0.000E+00

     total cpu time spent up to now is      122.5 secs

     End of self-consistent calculation

          k = 0.0000 0.0000 0.0000 ( 41563 PWs)   bands (ev):

   -21.2596 -14.0554 -10.3185 -10.3185

     occupation numbers 
     1.0000   1.0000   1.0000   1.0000

          k = 0.0000 0.0000 0.3897 ( 41519 PWs)   bands (ev):

   -21.2273 -14.1234 -10.2646 -10.2646

     occupation numbers 
     1.0000   1.0000   1.0000   1.0000

          k = 0.0000 0.0000 0.7794 ( 41483 PWs)   bands (ev):

   -21.1307 -14.3219 -10.1030 -10.1030

     occupation numbers 
     1.0000   1.0000   1.0000   1.0000

          k = 0.0000 0.0000 1.1691 ( 41499 PWs)   bands (ev):

   -20.9708 -14.6361  -9.8340  -9.8340

     occupation numbers 
     1.0000   1.0000   1.0000   1.0000

          k = 0.0000 0.0000 1.5589 ( 41455 PWs)   bands (ev):

   -20.7491 -15.0449  -9.4580  -9.4580

     occupation numbers 
     1.0000   1.0000   1.0000   1.0000

          k = 0.0000 0.0000 1.9486 ( 41391 PWs)   bands (ev):

   -20.4677 -15.5249  -8.9758  -8.9758

     occupation numbers 
     1.0000   1.0000   1.0000   1.0000

          k = 0.0000 0.0000 2.3383 ( 41355 PWs)   bands (ev):

   -20.1299 -16.0534  -8.3885  -8.3885

     occupation numbers 
     1.0000   1.0000   1.0000   1.0000

          k = 0.0000 0.0000 2.7280 ( 41327 PWs)   bands (ev):

   -19.7395 -16.6094  -7.6979  -7.6979

     occupation numbers 
     1.0000   1.0000   1.0000   1.0000

          k = 0.0000 0.0000 3.1177 ( 41207 PWs)   bands (ev):

   -19.3019 -17.1745  -6.9072  -6.9072

     occupation numbers 
     1.0000   1.0000   1.0000   1.0000

          k = 0.0000 0.0000 3.5074 ( 41035 PWs)   bands (ev):

   -18.8270 -17.7296  -6.0266  -6.0266

     occupation numbers 
     1.0000   1.0000   1.0000   1.0000

          k = 0.0000 0.0000-3.8971 ( 41050 PWs)   bands (ev):

   -18.4245 -18.1593  -5.2621  -5.2621

     occupation numbers 
     1.0000   1.0000   1.0000   1.0000

     highest occupied level (ev):    -5.2621

!    total energy              =     -36.74327169 Ry

     total all-electron energy =      -152.271467 Ry
     estimated scf accuracy    <          3.5E-11 Ry

     The total energy is the sum of the following terms:
     one-electron contribution =    -101.92456621 Ry
     hartree contribution      =      51.75152733 Ry
     xc contribution           =      -9.08980337 Ry
     ewald contribution        =      34.86064324 Ry
     one-center paw contrib.   =     -12.34107268 Ry
      -> PAW hartree energy AE =       9.69148486 Ry
      -> PAW hartree energy PS =      -9.68248994 Ry
      -> PAW xc energy AE      =     -10.72885359 Ry
      -> PAW xc energy PS      =       4.54932266 Ry
      -> total E_H with PAW    =      51.76052225 Ry
      -> total E_XC with PAW   =     -15.26933430 Ry

     convergence has been achieved in   1 iterations

     negative rho (up, down):  5.469E-04 0.000E+00

     Forces acting on atoms (cartesian axes, Ry/au):

     atom    1 type  1   force =     0.00000000    0.00000000   -0.00015742
     atom    2 type  1   force =     0.00000000    0.00000000    0.00015742
     The non-local contrib.  to forces
     atom    1 type  1   force =     0.00000000    0.00000000   -0.11708176
     atom    2 type  1   force =     0.00000000    0.00000000    0.11709024
     The ionic contribution  to forces
     atom    1 type  1   force =     0.00000000    0.00000000   -0.52384759
     atom    2 type  1   force =     0.00000000    0.00000000    0.52384759
     The local contribution  to forces
     atom    1 type  1   force =     0.00000000    0.00000000    0.63565125
     atom    2 type  1   force =     0.00000000    0.00000000   -0.63566161
     The core correction contribution to forces
     atom    1 type  1   force =    -0.00000000   -0.00000000    0.00514208
     atom    2 type  1   force =    -0.00000000   -0.00000000   -0.00508565
     The Hubbard contrib.    to forces
     atom    1 type  1   force =     0.00000000    0.00000000    0.00000000
     atom    2 type  1   force =     0.00000000    0.00000000    0.00000000
     The SCF correction term to forces
     atom    1 type  1   force =     0.00000000    0.00000000    0.00000576
     atom    2 type  1   force =     0.00000000    0.00000000   -0.00000599

     Total force =     0.000223     Total SCF correction =     0.000008


     Computing stress (Cartesian axis) and pressure


     negative rho (up, down):  5.469E-04 0.000E+00
          total   stress  (Ry/bohr**3)                   (kbar)     P=        0.08
  -0.00000012   0.00000000   0.00000000           -0.02        0.00        0.00
   0.00000000  -0.00000012   0.00000000            0.00       -0.02        0.00
   0.00000000   0.00000000   0.00000178            0.00        0.00        0.26

     kinetic stress (kbar)    226.92      0.00      0.00
                                0.00    226.92      0.00
                                0.00      0.00    156.17

     local   stress (kbar)     58.29     -0.00     -0.00
                               -0.00     58.29      0.00
                               -0.00      0.00  -2563.98

     nonloc. stress (kbar)     46.43      0.00      0.00
                                0.00     46.43      0.00
                                0.00      0.00     58.15

     hartree stress (kbar)      0.26      0.00     -0.00
                                0.00      0.26      0.00
                               -0.00      0.00   1098.59

     exc-cor stress (kbar)     -4.23     -0.00      0.00
                               -0.00     -4.23     -0.00
                                0.00     -0.00     -1.06

     corecor stress (kbar)    -47.37     -0.00     -0.00
                               -0.00    -47.37     -0.00
                               -0.00     -0.00    -48.62

     ewald   stress (kbar)   -280.31     -0.00     -0.00
                               -0.00   -280.31     -0.00
                               -0.00     -0.00   1301.00

     hubbard stress (kbar)      0.00      0.00      0.00
                                0.00      0.00      0.00
                                0.00      0.00      0.00

     DFT-D   stress (kbar)      0.00      0.00      0.00
                                0.00      0.00      0.00
                                0.00      0.00      0.00

     XDM     stress (kbar)      0.00      0.00      0.00
                                0.00      0.00      0.00
                                0.00      0.00      0.00

     dft-nl  stress (kbar)      0.00      0.00      0.00
                                0.00      0.00      0.00
                                0.00      0.00      0.00

     TS-vdW  stress (kbar)      0.00      0.00      0.00
                                0.00      0.00      0.00
                                0.00      0.00      0.00


     Message from routine bfgs:
     history already reset at previous step: stopping
     Energy error            =      7.3E-09
     Gradient error          =      1.6E-04

     bfgs converged in   6 scf cycles and   3 bfgs steps
     (criteria: energy <  1.0E-08 Ry, force <  1.0E-07 Ry/Bohr)

     End of BFGS Geometry Optimization

     Final energy   =     -36.7432716910 Ry

     File ./outdir/carbyne.bfgs deleted, as requested
Begin final coordinates

ATOMIC_POSITIONS (angstrom)
C            10.0000000000       10.0000000000       -0.0019756118
C            10.0000000000       10.0000000000        1.2517014809
End final coordinates



     Writing output data file ./outdir/carbyne.save/
 
     init_run     :      9.42s CPU      5.25s WALL (       1 calls)
     electrons    :    181.79s CPU     75.17s WALL (       6 calls)
     update_pot   :     25.12s CPU     10.92s WALL (       5 calls)
     forces       :     30.79s CPU     10.30s WALL (       6 calls)
     stress       :     44.59s CPU     15.14s WALL (       6 calls)

     Called by init_run:
     wfcinit      :      1.53s CPU      0.99s WALL (       1 calls)
     wfcinit:atom :      0.04s CPU      0.01s WALL (       1 calls)
     wfcinit:wfcr :      1.34s CPU      0.91s WALL (       1 calls)
     potinit      :      3.74s CPU      1.67s WALL (       1 calls)
     hinit0       :      2.69s CPU      1.68s WALL (       1 calls)

     Called by electrons:
     c_bands      :     41.16s CPU     12.04s WALL (      36 calls)
     sum_band     :     41.74s CPU     13.45s WALL (      36 calls)
     v_of_rho     :     76.25s CPU     35.35s WALL (      39 calls)
     v_h          :     10.54s CPU      2.93s WALL (      39 calls)
     v_xc         :     86.41s CPU     41.92s WALL (      51 calls)
     newd         :     13.81s CPU      3.67s WALL (      39 calls)
     PAW_pot      :      2.16s CPU      1.57s WALL (      44 calls)
     mix_rho      :      5.70s CPU      6.03s WALL (      36 calls)

     Called by c_bands:
     init_us_2    :      1.00s CPU      0.29s WALL (      78 calls)
     cegterg      :     31.41s CPU      9.05s WALL (      36 calls)

     Called by sum_band:
     sum_band:wei :      0.01s CPU      0.01s WALL (      36 calls)
     sum_band:loo :      6.69s CPU      1.70s WALL (      36 calls)
     sum_band:buf :      0.00s CPU      0.00s WALL (      36 calls)
     sum_band:ini :      0.47s CPU      0.12s WALL (      36 calls)
     sum_band:cal :      0.29s CPU      0.07s WALL (      41 calls)
     sum_band:bec :      0.13s CPU      0.04s WALL (      41 calls)
     addusdens    :     13.62s CPU      3.60s WALL (      36 calls)
     addusd:skk   :      0.07s CPU      0.02s WALL (      36 calls)
     addusd:dgemm :      4.13s CPU      1.15s WALL (      36 calls)
     addusd:qvan2 :      3.15s CPU      0.79s WALL (      36 calls)

     Called by *egterg:
     cdiaghg      :      0.65s CPU      1.76s WALL (      98 calls)
     cegterg:over :      1.08s CPU      0.27s WALL (      70 calls)
     cegterg:upda :      0.55s CPU      0.15s WALL (      70 calls)
     cegterg:last :      0.69s CPU      0.17s WALL (      70 calls)
     h_psi        :     28.14s CPU      7.17s WALL (     107 calls)
     s_psi        :      0.88s CPU      0.22s WALL (     107 calls)
     g_psi        :      0.09s CPU      0.02s WALL (      70 calls)

     Called by h_psi:
     h_psi:calbec :      1.12s CPU      0.31s WALL (     107 calls)
     vloc_psi     :     25.87s CPU      6.54s WALL (     107 calls)
     add_vuspsi   :      0.92s CPU      0.24s WALL (     107 calls)

     General routines
     calbec       :      1.60s CPU      0.44s WALL (     178 calls)
     fft          :     43.73s CPU     22.98s WALL (     653 calls)
     ffts         :      1.84s CPU      0.50s WALL (      75 calls)
     fftw         :     24.08s CPU      6.10s WALL (     934 calls)
     interpolate  :      9.32s CPU      2.56s WALL (      39 calls)
 
     Parallel routines

     PAW routines
     PAW_pot      :      2.16s CPU      1.57s WALL (      44 calls)
     PAW_symme    :      0.07s CPU      0.02s WALL (      80 calls)
 
     PWSCF        :   4m58.25s CPU   2m 7.72s WALL

 
   This run was terminated on:  15:11:22  11Jun2021            

=------------------------------------------------------------------------------=
   JOB DONE.
=------------------------------------------------------------------------------=
