 
             +---------------------------------------------------+
             |                                                   |
             |                   WANNIER90                       |
             |                                                   |
             +---------------------------------------------------+
             |                                                   |
             |        Welcome to the Maximally-Localized         |
             |        Generalized Wannier Functions code         |
             |            http://www.wannier.org                 |
             |                                                   |
             |                                                   |
             |  Wannier90 Developer Group:                       |
             |    Giovanni Pizzi    (EPFL)                       |
             |    Valerio Vitale    (Cambridge)                  |
             |    David Vanderbilt  (Rutgers University)         |
             |    Nicola Marzari    (EPFL)                       |
             |    Ivo Souza         (Universidad del Pais Vasco) |
             |    Arash A. Mostofi  (Imperial College London)    |
             |    Jonathan R. Yates (University of Oxford)       |
             |                                                   |
             |  For the full list of Wannier90 3.x authors,      |
             |  please check the code documentation and the      |
             |  README on the GitHub page of the code            |
             |                                                   |
             |                                                   |
             |  Please cite                                      |
             |                                                   |
             |  [ref] "Wannier90 as a community code:            |
             |        new features and applications",            |
             |        G. Pizzi et al., J. Phys. Cond. Matt. 32,  |
             |        165902 (2020).                             |
             |        http://doi.org/10.1088/1361-648X/ab51ff    |
             |                                                   |
             |  in any publications arising from the use of      |
             |  this code. For the method please cite            |
             |                                                   |
             |  [ref] "Maximally Localized Generalised Wannier   |
             |         Functions for Composite Energy Bands"     |
             |         N. Marzari and D. Vanderbilt              |
             |         Phys. Rev. B 56 12847 (1997)              |
             |                                                   |
             |  [ref] "Maximally Localized Wannier Functions     |
             |         for Entangled Energy Bands"               |
             |         I. Souza, N. Marzari and D. Vanderbilt    |
             |         Phys. Rev. B 65 035109 (2001)             |
             |                                                   |
             |                                                   |
             | Copyright (c) 1996-2020                           |
             |        The Wannier90 Developer Group and          |
             |        individual contributors                    |
             |                                                   |
             |      Release: 3.1.0        5th March    2020      |
             |                                                   |
             | This program is free software; you can            |
             | redistribute it and/or modify it under the terms  |
             | of the GNU General Public License as published by |
             | the Free Software Foundation; either version 2 of |
             | the License, or (at your option) any later version|
             |                                                   |
             | This program is distributed in the hope that it   |
             | will be useful, but WITHOUT ANY WARRANTY; without |
             | even the implied warranty of MERCHANTABILITY or   |
             | FITNESS FOR A PARTICULAR PURPOSE. See the GNU     |
             | General Public License for more details.          |
             |                                                   |
             | You should have received a copy of the GNU General|
             | Public License along with this program; if not,   |
             | write to the Free Software Foundation, Inc.,      |
             | 675 Mass Ave, Cambridge, MA 02139, USA.           |
             |                                                   |
             +---------------------------------------------------+
             |    Execution started on 20Jun2021 at 09:09:19     |
             +---------------------------------------------------+
 
 ******************************************************************************
 * -> Using CODATA 2006 constant values                                       *
 *    (http://physics.nist.gov/cuu/Constants/index.html)                      *
 * -> Using Bohr value from CODATA                                            *
 ******************************************************************************
 

 Wannier90 is running in LIBRARY MODE

 Setting up k-point neighbours...

 
                                    ------
                                    SYSTEM
                                    ------
 
                              Lattice Vectors (Ang)
                    a_1    20.000000   0.000000   0.000000
                    a_2     0.000000  20.000000   0.000000
                    a_3     0.000000   0.000000   2.565985
 
                   Unit Cell Volume:    1026.39416  (Ang^3)
 
                        Reciprocal-Space Vectors (Ang^-1)
                    b_1     0.314159   0.000000   0.000000
                    b_2     0.000000   0.314159   0.000000
                    b_3     0.000000   0.000000   2.448644
  
 *----------------------------------------------------------------------------*
 |   Site       Fractional Coordinate          Cartesian Coordinate (Ang)     |
 +----------------------------------------------------------------------------+
 | C    1   0.50000   0.50000  -0.00077   |   10.00000  10.00000  -0.00198    |
 | C    2   0.50000   0.50000   0.48781   |   10.00000  10.00000   1.25170    |
 *----------------------------------------------------------------------------*
                                -----------
                                PROJECTIONS
                                -----------
  
 +----------------------------------------------------------------------------+
 |     Frac. Coord.   l mr  r        z-axis               x-axis          Z/a |
 +----------------------------------------------------------------------------+
 |  0.50  0.50 -0.00  1  2  1  0.000  0.000  1.000  1.000  0.000  0.000   1.0 |
 |  0.50  0.50 -0.00  1  3  1  0.000  0.000  1.000  1.000  0.000  0.000   1.0 |
 |  0.50  0.50  0.49  1  2  1  0.000  0.000  1.000  1.000  0.000  0.000   1.0 |
 |  0.50  0.50  0.49  1  3  1  0.000  0.000  1.000  1.000  0.000  0.000   1.0 |
 |  0.50  0.50 -0.00 -1  1  1  0.000  0.000  1.000  1.000  0.000  0.000   1.0 |
 |  0.50  0.50  0.49 -1  1  1  0.000  0.000  1.000  1.000  0.000  0.000   1.0 |
 +----------------------------------------------------------------------------+
  
                                ------------
                                K-POINT GRID
                                ------------
  
             Grid size =  1 x  1 x 20      Total points =   20
  
 *----------------------------------------------------------------------------*
 | k-point      Fractional Coordinate        Cartesian Coordinate (Ang^-1)    |
 +----------------------------------------------------------------------------+
 |     1    0.00000   0.00000   0.00000   |    0.00000   0.00000   0.00000    |
 |     2    0.00000   0.00000   0.05000   |    0.00000   0.00000   0.12243    |
 |     3    0.00000   0.00000   0.10000   |    0.00000   0.00000   0.24486    |
 |     4    0.00000   0.00000   0.15000   |    0.00000   0.00000   0.36730    |
 |     5    0.00000   0.00000   0.20000   |    0.00000   0.00000   0.48973    |
 |     6    0.00000   0.00000   0.25000   |    0.00000   0.00000   0.61216    |
 |     7    0.00000   0.00000   0.30000   |    0.00000   0.00000   0.73459    |
 |     8    0.00000   0.00000   0.35000   |    0.00000   0.00000   0.85703    |
 |     9    0.00000   0.00000   0.40000   |    0.00000   0.00000   0.97946    |
 |    10    0.00000   0.00000   0.45000   |    0.00000   0.00000   1.10189    |
 |    11    0.00000   0.00000   0.50000   |    0.00000   0.00000   1.22432    |
 |    12    0.00000   0.00000   0.55000   |    0.00000   0.00000   1.34675    |
 |    13    0.00000   0.00000   0.60000   |    0.00000   0.00000   1.46919    |
 |    14    0.00000   0.00000   0.65000   |    0.00000   0.00000   1.59162    |
 |    15    0.00000   0.00000   0.70000   |    0.00000   0.00000   1.71405    |
 |    16    0.00000   0.00000   0.75000   |    0.00000   0.00000   1.83648    |
 |    17    0.00000   0.00000   0.80000   |    0.00000   0.00000   1.95892    |
 |    18    0.00000   0.00000   0.85000   |    0.00000   0.00000   2.08135    |
 |    19    0.00000   0.00000   0.90000   |    0.00000   0.00000   2.20378    |
 |    20    0.00000   0.00000   0.95000   |    0.00000   0.00000   2.32621    |
 *----------------------------------------------------------------------------*
  
  
 *---------------------------------- MAIN ------------------------------------*
 |  Number of Wannier Functions               :                 6             |
 |  Number of Objective Wannier Functions     :                 6             |
 |  Number of input Bloch states              :                 8             |
 |  Output verbosity (1=low, 5=high)          :                 2             |
 |  Timing Level (1=low, 5=high)              :                 1             |
 |  Optimisation (0=memory, 3=speed)          :                 3             |
 |  Length Unit                               :               Ang             |
 |  Post-processing setup (write *.nnkp)      :                 T             |
 |  Using Gamma-only branch of algorithms     :                 F             |
 *----------------------------------------------------------------------------*
 *------------------------------- WANNIERISE ---------------------------------*
 |  Total number of iterations                :             30000             |
 |  Number of CG steps before reset           :                 5             |
 |  Trial step length for line search         :             2.000             |
 |  Convergence tolerence                     :         0.100E-09             |
 |  Convergence window                        :                10             |
 |  Iterations between writing output         :                 1             |
 |  Iterations between backing up to disk     :               100             |
 |  Write r^2_nm to file                      :                 F             |
 |  Write xyz WF centres to file              :                 F             |
 |  Write on-site energies <0n|H|0n> to file  :                 F             |
 |  Use guiding centre to control phases      :                 T             |
 |  Use phases for initial projections        :                 F             |
 |  Iterations before starting guiding centres:                 0             |
 |  Iterations between using guiding centres  :                 1             |
 *----------------------------------------------------------------------------*
 *------------------------------- DISENTANGLE --------------------------------*
 |  Using band disentanglement                :                 T             |
 |  Total number of iterations                :             30000             |
 |  Mixing ratio                              :             0.500             |
 |  Convergence tolerence                     :         1.000E-10             |
 |  Convergence window                        :                 5             |
 *----------------------------------------------------------------------------*
 *-------------------------------- PLOTTING ----------------------------------*
 |  Plotting Hamiltonian in WF basis          :                 T             |
 *----------------------------------------------------------------------------*
 Time to read parameters        0.008 (sec)

 *---------------------------------- K-MESH ----------------------------------*
 +----------------------------------------------------------------------------+
 |                    Distance to Nearest-Neighbour Shells                    |
 |                    ------------------------------------                    |
 |          Shell             Distance (Ang^-1)          Multiplicity         |
 |          -----             -----------------          ------------         |
 |             1                   0.122432                      2            |
 |             2                   0.244864                      2            |
 |             3                   0.314159                      4            |
 |             4                   0.337173                      8            |
 |             5                   0.367297                      2            |
 |             6                   0.398315                      8            |
 |             7                   0.444288                      4            |
 |             8                   0.460849                      8            |
 |             9                   0.483325                      8            |
 |            10                   0.489729                      2            |
 |            11                   0.507297                      8            |
 |            12                   0.576454                      8            |
 |            13                   0.581834                      8            |
 |            14                   0.612161                      2            |
 |            15                   0.628319                      4            |
 |            16                   0.640136                      8            |
 |            17                   0.661231                      8            |
 |            18                   0.674346                      8            |
 |            19                   0.688068                      8            |
 |            20                   0.702481                      8            |
 |            21                   0.713071                     16            |
 |            22                   0.727799                      8            |
 |            23                   0.734593                      2            |
 |            24                   0.743935                     16            |
 |            25                   0.756395                      8            |
 |            26                   0.792709                     16            |
 |            27                   0.796629                      8            |
 |            28                   0.798951                      8            |
 |            29                   0.856338                     16            |
 |            30                   0.857025                      2            |
 |            31                   0.858498                      8            |
 |            32                   0.877226                      8            |
 |            33                   0.888577                      4            |
 |            34                   0.896972                      8            |
 |            35                   0.912792                      8            |
 |            36                   0.921698                      8            |
 +----------------------------------------------------------------------------+
 | The b-vectors are chosen automatically                                     |
 | Shell:  1 w_b   33.3563578      (Ang^2)                                    |
 | Shell:  1 w_b   33.3563578      (Ang^2)                                    |
 | Shell:  2 w_b    5.0660592      (Ang^2)                                    |
 | The following shells are used:   1,  3                                     |
 +----------------------------------------------------------------------------+
 |                        Shell   # Nearest-Neighbours                        |
 |                        -----   --------------------                        |
 |                          1               2                                 |
 |                          3               4                                 |
 +----------------------------------------------------------------------------+
 | Completeness relation is fully satisfied [Eq. (B1), PRB 56, 12847 (1997)]  |
 +----------------------------------------------------------------------------+
 |                  b_k Vectors (Ang^-1) and Weights (Ang^2)                  |
 |                  ----------------------------------------                  |
 |            No.         b_k(x)      b_k(y)      b_k(z)        w_b           |
 |            ---        --------------------------------     --------        |
 |             1         0.000000    0.000000    0.122432    33.356358        |
 |             2         0.000000    0.000000   -0.122432    33.356358        |
 |             3         0.314159    0.000000    0.000000     5.066059        |
 |             4         0.000000    0.314159    0.000000     5.066059        |
 |             5         0.000000   -0.314159    0.000000     5.066059        |
 |             6        -0.314159    0.000000    0.000000     5.066059        |
 +----------------------------------------------------------------------------+
 |                           b_k Directions (Ang^-1)                          |
 |                           -----------------------                          |
 |            No.           x           y           z                         |
 |            ---        --------------------------------                     |
 |             1         0.000000    0.000000    0.122432                     |
 |             2         0.314159    0.000000    0.000000                     |
 |             3         0.000000    0.314159    0.000000                     |
 +----------------------------------------------------------------------------+
  
 Time to write kmesh            0.033 (sec)

 carbyne.nnkp written.
 Time to write kmesh            0.033 (sec)

 Finished setting up k-point neighbours.

 Exiting wannier_setup in wannier90 09:09:19 

 Resuming Wannier90 at 09:09:28 

 
                                    ------
                                    SYSTEM
                                    ------
 
                              Lattice Vectors (Ang)
                    a_1    20.000000   0.000000   0.000000
                    a_2     0.000000  20.000000   0.000000
                    a_3     0.000000   0.000000   2.565985
 
                   Unit Cell Volume:    1026.39416  (Ang^3)
 
                        Reciprocal-Space Vectors (Ang^-1)
                    b_1     0.314159   0.000000   0.000000
                    b_2     0.000000   0.314159   0.000000
                    b_3     0.000000   0.000000   2.448644
  
 *----------------------------------------------------------------------------*
 |   Site       Fractional Coordinate          Cartesian Coordinate (Ang)     |
 +----------------------------------------------------------------------------+
 | C    1   0.50000   0.50000  -0.00077   |   10.00000  10.00000  -0.00198    |
 | C    2   0.50000   0.50000   0.48781   |   10.00000  10.00000   1.25170    |
 *----------------------------------------------------------------------------*
                                -----------
                                PROJECTIONS
                                -----------
  
 +----------------------------------------------------------------------------+
 |     Frac. Coord.   l mr  r        z-axis               x-axis          Z/a |
 +----------------------------------------------------------------------------+
 |  0.50  0.50 -0.00  1  2  1  0.000  0.000  1.000  1.000  0.000  0.000   1.0 |
 |  0.50  0.50 -0.00  1  3  1  0.000  0.000  1.000  1.000  0.000  0.000   1.0 |
 |  0.50  0.50  0.49  1  2  1  0.000  0.000  1.000  1.000  0.000  0.000   1.0 |
 |  0.50  0.50  0.49  1  3  1  0.000  0.000  1.000  1.000  0.000  0.000   1.0 |
 |  0.50  0.50 -0.00 -1  1  1  0.000  0.000  1.000  1.000  0.000  0.000   1.0 |
 |  0.50  0.50  0.49 -1  1  1  0.000  0.000  1.000  1.000  0.000  0.000   1.0 |
 +----------------------------------------------------------------------------+
  
                                ------------
                                K-POINT GRID
                                ------------
  
             Grid size =  1 x  1 x 20      Total points =   20
  
 *----------------------------------------------------------------------------*
 | k-point      Fractional Coordinate        Cartesian Coordinate (Ang^-1)    |
 +----------------------------------------------------------------------------+
 |     1    0.00000   0.00000   0.00000   |    0.00000   0.00000   0.00000    |
 |     2    0.00000   0.00000   0.05000   |    0.00000   0.00000   0.12243    |
 |     3    0.00000   0.00000   0.10000   |    0.00000   0.00000   0.24486    |
 |     4    0.00000   0.00000   0.15000   |    0.00000   0.00000   0.36730    |
 |     5    0.00000   0.00000   0.20000   |    0.00000   0.00000   0.48973    |
 |     6    0.00000   0.00000   0.25000   |    0.00000   0.00000   0.61216    |
 |     7    0.00000   0.00000   0.30000   |    0.00000   0.00000   0.73459    |
 |     8    0.00000   0.00000   0.35000   |    0.00000   0.00000   0.85703    |
 |     9    0.00000   0.00000   0.40000   |    0.00000   0.00000   0.97946    |
 |    10    0.00000   0.00000   0.45000   |    0.00000   0.00000   1.10189    |
 |    11    0.00000   0.00000   0.50000   |    0.00000   0.00000   1.22432    |
 |    12    0.00000   0.00000   0.55000   |    0.00000   0.00000   1.34675    |
 |    13    0.00000   0.00000   0.60000   |    0.00000   0.00000   1.46919    |
 |    14    0.00000   0.00000   0.65000   |    0.00000   0.00000   1.59162    |
 |    15    0.00000   0.00000   0.70000   |    0.00000   0.00000   1.71405    |
 |    16    0.00000   0.00000   0.75000   |    0.00000   0.00000   1.83648    |
 |    17    0.00000   0.00000   0.80000   |    0.00000   0.00000   1.95892    |
 |    18    0.00000   0.00000   0.85000   |    0.00000   0.00000   2.08135    |
 |    19    0.00000   0.00000   0.90000   |    0.00000   0.00000   2.20378    |
 |    20    0.00000   0.00000   0.95000   |    0.00000   0.00000   2.32621    |
 *----------------------------------------------------------------------------*
  
  
 *---------------------------------- MAIN ------------------------------------*
 |  Number of Wannier Functions               :                 6             |
 |  Number of Objective Wannier Functions     :                 6             |
 |  Number of input Bloch states              :                 8             |
 |  Output verbosity (1=low, 5=high)          :                 2             |
 |  Timing Level (1=low, 5=high)              :                 1             |
 |  Optimisation (0=memory, 3=speed)          :                 3             |
 |  Length Unit                               :               Ang             |
 |  Post-processing setup (write *.nnkp)      :                 T             |
 |  Using Gamma-only branch of algorithms     :                 F             |
 *----------------------------------------------------------------------------*
 *------------------------------- WANNIERISE ---------------------------------*
 |  Total number of iterations                :             30000             |
 |  Number of CG steps before reset           :                 5             |
 |  Trial step length for line search         :             2.000             |
 |  Convergence tolerence                     :         0.100E-09             |
 |  Convergence window                        :                10             |
 |  Iterations between writing output         :                 1             |
 |  Iterations between backing up to disk     :               100             |
 |  Write r^2_nm to file                      :                 F             |
 |  Write xyz WF centres to file              :                 F             |
 |  Write on-site energies <0n|H|0n> to file  :                 F             |
 |  Use guiding centre to control phases      :                 T             |
 |  Use phases for initial projections        :                 F             |
 |  Iterations before starting guiding centres:                 0             |
 |  Iterations between using guiding centres  :                 1             |
 *----------------------------------------------------------------------------*
 *------------------------------- DISENTANGLE --------------------------------*
 |  Using band disentanglement                :                 T             |
 |  Total number of iterations                :             30000             |
 |  Mixing ratio                              :             0.500             |
 |  Convergence tolerence                     :         1.000E-10             |
 |  Convergence window                        :                 5             |
 *----------------------------------------------------------------------------*
 *-------------------------------- PLOTTING ----------------------------------*
 |  Plotting Hamiltonian in WF basis          :                 T             |
 *----------------------------------------------------------------------------*
 Time to read parameters        0.004 (sec)

 *---------------------------------- K-MESH ----------------------------------*
 +----------------------------------------------------------------------------+
 |                    Distance to Nearest-Neighbour Shells                    |
 |                    ------------------------------------                    |
 |          Shell             Distance (Ang^-1)          Multiplicity         |
 |          -----             -----------------          ------------         |
 |             1                   0.122432                      2            |
 |             2                   0.244864                      2            |
 |             3                   0.314159                      4            |
 |             4                   0.337173                      8            |
 |             5                   0.367297                      2            |
 |             6                   0.398315                      8            |
 |             7                   0.444288                      4            |
 |             8                   0.460849                      8            |
 |             9                   0.483325                      8            |
 |            10                   0.489729                      2            |
 |            11                   0.507297                      8            |
 |            12                   0.576454                      8            |
 |            13                   0.581834                      8            |
 |            14                   0.612161                      2            |
 |            15                   0.628319                      4            |
 |            16                   0.640136                      8            |
 |            17                   0.661231                      8            |
 |            18                   0.674346                      8            |
 |            19                   0.688068                      8            |
 |            20                   0.702481                      8            |
 |            21                   0.713071                     16            |
 |            22                   0.727799                      8            |
 |            23                   0.734593                      2            |
 |            24                   0.743935                     16            |
 |            25                   0.756395                      8            |
 |            26                   0.792709                     16            |
 |            27                   0.796629                      8            |
 |            28                   0.798951                      8            |
 |            29                   0.856338                     16            |
 |            30                   0.857025                      2            |
 |            31                   0.858498                      8            |
 |            32                   0.877226                      8            |
 |            33                   0.888577                      4            |
 |            34                   0.896972                      8            |
 |            35                   0.912792                      8            |
 |            36                   0.921698                      8            |
 +----------------------------------------------------------------------------+
 | The b-vectors are chosen automatically                                     |
 | Shell:  1 w_b   33.3563578      (Ang^2)                                    |
 | Shell:  1 w_b   33.3563578      (Ang^2)                                    |
 | Shell:  2 w_b    5.0660592      (Ang^2)                                    |
 | The following shells are used:   1,  3                                     |
 +----------------------------------------------------------------------------+
 |                        Shell   # Nearest-Neighbours                        |
 |                        -----   --------------------                        |
 |                          1               2                                 |
 |                          3               4                                 |
 +----------------------------------------------------------------------------+
 | Completeness relation is fully satisfied [Eq. (B1), PRB 56, 12847 (1997)]  |
 +----------------------------------------------------------------------------+
 |                  b_k Vectors (Ang^-1) and Weights (Ang^2)                  |
 |                  ----------------------------------------                  |
 |            No.         b_k(x)      b_k(y)      b_k(z)        w_b           |
 |            ---        --------------------------------     --------        |
 |             1         0.000000    0.000000    0.122432    33.356358        |
 |             2         0.000000    0.000000   -0.122432    33.356358        |
 |             3         0.314159    0.000000    0.000000     5.066059        |
 |             4         0.000000    0.314159    0.000000     5.066059        |
 |             5         0.000000   -0.314159    0.000000     5.066059        |
 |             6        -0.314159    0.000000    0.000000     5.066059        |
 +----------------------------------------------------------------------------+
 |                           b_k Directions (Ang^-1)                          |
 |                           -----------------------                          |
 |            No.           x           y           z                         |
 |            ---        --------------------------------                     |
 |             1         0.000000    0.000000    0.122432                     |
 |             2         0.314159    0.000000    0.000000                     |
 |             3         0.000000    0.314159    0.000000                     |
 +----------------------------------------------------------------------------+
  
 Time to get kmesh              0.021 (sec)

 *------------------------------- DISENTANGLE --------------------------------*
 +----------------------------------------------------------------------------+
 |                              Energy  Windows                               |
 |                              ---------------                               |
 |                   Outer:  -21.25954  to    4.73194  (eV)                   |
 |                   Inner:  -21.25954  to   -0.55000  (eV)                   |
 +----------------------------------------------------------------------------+
 |                        K-points with Frozen States                         |
 |                        ---------------------------                         |
 |     1     2     3     4     5     6     7     8     9    10    11    12    |
 |    13    14    15    16    17    18    19    20                            |
 +----------------------------------------------------------------------------+
   Number of target bands to extract:    6
 +----------------------------------------------------------------------------+
 |                                  Windows                                   |
 |                                  -------                                   |
 |               K-point      Ndimwin     Ndimfroz    Nfirstwin               |
 |               ----------------------------------------------               |
 |                   1            8            4           1                  |
 |                   2            8            4           1                  |
 |                   3            8            4           1                  |
 |                   4            8            4           1                  |
 |                   5            8            4           1                  |
 |                   6            8            4           1                  |
 |                   7            8            4           1                  |
 |                   8            8            6           1                  |
 |                   9            8            6           1                  |
 |                  10            8            6           1                  |
 |                  11            8            6           1                  |
 |                  12            8            6           1                  |
 |                  13            8            6           1                  |
 |                  14            8            6           1                  |
 |                  15            8            4           1                  |
 |                  16            8            4           1                  |
 |                  17            8            4           1                  |
 |                  18            8            4           1                  |
 |                  19            8            4           1                  |
 |                  20            8            4           1                  |
 +----------------------------------------------------------------------------+

                   Unitarised projection of Wannier functions                  
                   ------------------------------------------                  
   A_mn = <psi_m|g_n> --> S = A.A^+ --> U = S^-1/2.A
   In dis_project... done
   Using an inner window (linner = T)
   In dis_proj_froz... done

                   Extraction of optimally-connected subspace                  
                   ------------------------------------------                  
 +---------------------------------------------------------------------+<-- DIS
 |  Iter     Omega_I(i-1)      Omega_I(i)      Delta (frac.)    Time   |<-- DIS
 +---------------------------------------------------------------------+<-- DIS
       1      31.61301820      31.62258452      -3.025E-04      0.00    <-- DIS
       2      31.61404240      31.60704175       2.215E-04      0.00    <-- DIS
       3      31.61047817      31.60666730       1.206E-04      0.00    <-- DIS
       4      31.60854958      31.60649874       6.489E-05      0.00    <-- DIS
       5      31.60750835      31.60638175       3.564E-05      0.00    <-- DIS
       6      31.60693362      31.60629643       2.016E-05      0.00    <-- DIS
       7      31.60660641      31.60623142       1.186E-05      0.00    <-- DIS
       8      31.60641206      31.60617896       7.375E-06      0.01    <-- DIS
       9      31.60628967      31.60613348       4.942E-06      0.01    <-- DIS
      10      31.60620620      31.60609080       3.651E-06      0.01    <-- DIS
      11      31.60614313      31.60604750       3.025E-06      0.01    <-- DIS
      12      31.60608957      31.60600061       2.815E-06      0.01    <-- DIS
      13      31.60603862      31.60594723       2.891E-06      0.01    <-- DIS
      14      31.60598533      31.60588430       3.197E-06      0.01    <-- DIS
      15      31.60592570      31.60580836       3.712E-06      0.01    <-- DIS
      16      31.60585589      31.60571535       4.447E-06      0.01    <-- DIS
      17      31.60577186      31.60560028       5.428E-06      0.01    <-- DIS
      18      31.60566896      31.60545705       6.705E-06      0.01    <-- DIS
      19      31.60554162      31.60527798       8.342E-06      0.01    <-- DIS
      20      31.60538301      31.60505349       1.043E-05      0.01    <-- DIS
      21      31.60518461      31.60477150       1.307E-05      0.01    <-- DIS
      22      31.60493575      31.60441680       1.642E-05      0.02    <-- DIS
      23      31.60462302      31.60397024       2.066E-05      0.02    <-- DIS
      24      31.60422955      31.60340764       2.601E-05      0.02    <-- DIS
      25      31.60373405      31.60269855       3.277E-05      0.02    <-- DIS
      26      31.60310971      31.60180454       4.130E-05      0.02    <-- DIS
      27      31.60232272      31.60067721       5.207E-05      0.02    <-- DIS
      28      31.60133047      31.59925561       6.566E-05      0.02    <-- DIS
      29      31.60007931      31.59746300       8.280E-05      0.02    <-- DIS
      30      31.59850167      31.59520286       1.044E-04      0.02    <-- DIS
      31      31.59651255      31.59235396       1.316E-04      0.02    <-- DIS
      32      31.59400516      31.58876423       1.659E-04      0.02    <-- DIS
      33      31.59084546      31.58424321       2.090E-04      0.02    <-- DIS
      34      31.58686551      31.57855298       2.632E-04      0.02    <-- DIS
      35      31.58185537      31.57139709       3.313E-04      0.03    <-- DIS
      36      31.57555322      31.56240757       4.165E-04      0.03    <-- DIS
      37      31.56763372      31.55112970       5.231E-04      0.03    <-- DIS
      38      31.55769425      31.53700479       6.560E-04      0.03    <-- DIS
      39      31.54523922      31.51935133       8.213E-04      0.03    <-- DIS
      40      31.52966271      31.49734556       1.026E-03      0.03    <-- DIS
      41      31.51023008      31.47000319       1.278E-03      0.03    <-- DIS
      42      31.48606010      31.43616508       1.587E-03      0.03    <-- DIS
      43      31.45610969      31.39449116       1.963E-03      0.03    <-- DIS
      44      31.41916482      31.34346824       2.415E-03      0.03    <-- DIS
      45      31.37384225      31.28143871       2.954E-03      0.03    <-- DIS
      46      31.31860809      31.20665767       3.587E-03      0.03    <-- DIS
      47      31.25181995      31.11738510       4.320E-03      0.03    <-- DIS
      48      31.17179875      31.01201591       5.152E-03      0.03    <-- DIS
      49      31.07693437      30.88924468       6.076E-03      0.04    <-- DIS
      50      30.96582406      30.74825212       7.076E-03      0.04    <-- DIS
      51      30.83743562      30.58889014       8.125E-03      0.04    <-- DIS
      52      30.69127850      30.41183351       9.189E-03      0.04    <-- DIS
      53      30.52755759      30.21866290       1.022E-02      0.04    <-- DIS
      54      30.34728010      30.01184941       1.118E-02      0.04    <-- DIS
      55      30.15228725      29.79462608       1.200E-02      0.04    <-- DIS
      56      29.94519210      29.57075477       1.266E-02      0.04    <-- DIS
      57      29.72922145      29.34422086       1.312E-02      0.04    <-- DIS
      58      29.50797970      29.11890658       1.336E-02      0.04    <-- DIS
      59      29.28516986      28.89829754       1.339E-02      0.04    <-- DIS
      60      29.06431584      28.68526686       1.321E-02      0.04    <-- DIS
      61      28.84852775      28.48195929       1.287E-02      0.04    <-- DIS
      62      28.64033931      28.28977384       1.239E-02      0.05    <-- DIS
      63      28.44162851      28.10942515       1.182E-02      0.05    <-- DIS
      64      28.25361589      27.94105468       1.119E-02      0.05    <-- DIS
      65      28.07692283      27.78436311       1.053E-02      0.05    <-- DIS
      66      27.91166745      27.63874176       9.875E-03      0.05    <-- DIS
      67      27.75757674      27.50338845       9.242E-03      0.05    <-- DIS
      68      27.61409794      27.37740116       8.646E-03      0.05    <-- DIS
      69      27.48049812      27.25984809       8.094E-03      0.05    <-- DIS
      70      27.35594629      27.14981628       7.592E-03      0.05    <-- DIS
      71      27.23957641      27.04644233       7.141E-03      0.05    <-- DIS
      72      27.13053235      26.94892925       6.739E-03      0.05    <-- DIS
      73      27.02799748      26.85655310       6.384E-03      0.05    <-- DIS
      74      26.93121181      26.76866271       6.072E-03      0.05    <-- DIS
      75      26.83947978      26.68467472       5.801E-03      0.05    <-- DIS
      76      26.75217131      26.60406594       5.567E-03      0.06    <-- DIS
      77      26.66871829      26.52636434       5.367E-03      0.06    <-- DIS
      78      26.58860830      26.45113959       5.197E-03      0.06    <-- DIS
      79      26.51137674      26.37799398       5.057E-03      0.06    <-- DIS
      80      26.43659844      26.30655407       4.943E-03      0.06    <-- DIS
      81      26.36387951      26.23646373       4.856E-03      0.06    <-- DIS
      82      26.29284990      26.16737882       4.795E-03      0.06    <-- DIS
      83      26.22315725      26.09896408       4.759E-03      0.06    <-- DIS
      84      26.15446249      26.03089273       4.747E-03      0.06    <-- DIS
      85      26.08643774      25.96284939       4.760E-03      0.06    <-- DIS
      86      26.01876690      25.89453688       4.798E-03      0.06    <-- DIS
      87      25.95114963      25.82568745       4.858E-03      0.06    <-- DIS
      88      25.88330907      25.75607852       4.940E-03      0.06    <-- DIS
      89      25.81500361      25.68555263       5.040E-03      0.07    <-- DIS
      90      25.74604252      25.61404016       5.154E-03      0.07    <-- DIS
      91      25.67630452      25.54158228       5.275E-03      0.07    <-- DIS
      92      25.60575762      25.46835025       5.395E-03      0.07    <-- DIS
      93      25.53447714      25.39465631       5.506E-03      0.07    <-- DIS
      94      25.46265856      25.32095145       5.596E-03      0.07    <-- DIS
      95      25.39062098      25.24780657       5.657E-03      0.07    <-- DIS
      96      25.31879812      25.17587669       5.677E-03      0.07    <-- DIS
      97      25.24771559      25.10585148       5.651E-03      0.07    <-- DIS
      98      25.17795572      25.03839920       5.574E-03      0.07    <-- DIS
      99      25.11011420      24.97411300       5.446E-03      0.07    <-- DIS
     100      25.04475498      24.91346811       5.270E-03      0.07    <-- DIS
     101      24.98236996      24.85679591       5.052E-03      0.07    <-- DIS
     102      24.92334909      24.80427664       4.800E-03      0.07    <-- DIS
     103      24.86796395      24.75594865       4.525E-03      0.08    <-- DIS
     104      24.81636493      24.71172961       4.234E-03      0.08    <-- DIS
     105      24.76858984      24.67144405       3.938E-03      0.08    <-- DIS
     106      24.72458041      24.63485218       3.642E-03      0.08    <-- DIS
     107      24.68420294      24.60167632       3.355E-03      0.08    <-- DIS
     108      24.64726963      24.57162272       3.079E-03      0.08    <-- DIS
     109      24.61355829      24.54439813       2.818E-03      0.08    <-- DIS
     110      24.58282902      24.51972121       2.574E-03      0.08    <-- DIS
     111      24.55483721      24.49732965       2.348E-03      0.08    <-- DIS
     112      24.52934309      24.47698380       2.139E-03      0.08    <-- DIS
     113      24.50611807      24.45846791       1.948E-03      0.08    <-- DIS
     114      24.48494860      24.44158967       1.774E-03      0.08    <-- DIS
     115      24.46563811      24.42617875       1.615E-03      0.08    <-- DIS
     116      24.44800752      24.41208490       1.472E-03      0.08    <-- DIS
     117      24.43189491      24.39917571       1.341E-03      0.09    <-- DIS
     118      24.41715453      24.38733451       1.223E-03      0.09    <-- DIS
     119      24.40365560      24.37645830       1.116E-03      0.09    <-- DIS
     120      24.39128092      24.36645596       1.019E-03      0.09    <-- DIS
     121      24.37992547      24.35724663       9.311E-04      0.09    <-- DIS
     122      24.36949514      24.34875828       8.517E-04      0.09    <-- DIS
     123      24.35990545      24.34092657       7.797E-04      0.09    <-- DIS
     124      24.35108048      24.33369380       7.145E-04      0.09    <-- DIS
     125      24.34295191      24.32700806       6.554E-04      0.09    <-- DIS
     126      24.33545812      24.32082252       6.018E-04      0.09    <-- DIS
     127      24.32854344      24.31509482       5.531E-04      0.09    <-- DIS
     128      24.32215752      24.30978650       5.089E-04      0.09    <-- DIS
     129      24.31625472      24.30486264       4.687E-04      0.09    <-- DIS
     130      24.31079361      24.30029142       4.322E-04      0.10    <-- DIS
     131      24.30573657      24.29604383       3.989E-04      0.10    <-- DIS
     132      24.30104934      24.29209335       3.687E-04      0.10    <-- DIS
     133      24.29670076      24.28841576       3.411E-04      0.10    <-- DIS
     134      24.29266238      24.28498886       3.160E-04      0.10    <-- DIS
     135      24.28890828      24.28179234       2.931E-04      0.10    <-- DIS
     136      24.28541477      24.27880757       2.721E-04      0.10    <-- DIS
     137      24.28216023      24.27601746       2.530E-04      0.10    <-- DIS
     138      24.27912489      24.27340635       2.356E-04      0.10    <-- DIS
     139      24.27629066      24.27095983       2.196E-04      0.10    <-- DIS
     140      24.27364099      24.26866472       2.050E-04      0.10    <-- DIS
     141      24.27116075      24.26650886       1.917E-04      0.10    <-- DIS
     142      24.26883606      24.26448112       1.795E-04      0.10    <-- DIS
     143      24.26665424      24.26257126       1.683E-04      0.10    <-- DIS
     144      24.26460365      24.26076987       1.580E-04      0.11    <-- DIS
     145      24.26267362      24.25906831       1.486E-04      0.11    <-- DIS
     146      24.26085440      24.25745863       1.400E-04      0.11    <-- DIS
     147      24.25913701      24.25593354       1.321E-04      0.11    <-- DIS
     148      24.25751325      24.25448633       1.248E-04      0.11    <-- DIS
     149      24.25597558      24.25311083       1.181E-04      0.11    <-- DIS
     150      24.25451711      24.25180138       1.120E-04      0.11    <-- DIS
     151      24.25313148      24.25055277       1.063E-04      0.11    <-- DIS
     152      24.25181289      24.24936020       1.011E-04      0.11    <-- DIS
     153      24.25055600      24.24821930       9.637E-05      0.11    <-- DIS
     154      24.24935592      24.24712601       9.197E-05      0.11    <-- DIS
     155      24.24820816      24.24607662       8.791E-05      0.11    <-- DIS
     156      24.24710860      24.24506772       8.418E-05      0.11    <-- DIS
     157      24.24605346      24.24409617       8.073E-05      0.12    <-- DIS
     158      24.24503925      24.24315910       7.755E-05      0.12    <-- DIS
     159      24.24406281      24.24225385       7.462E-05      0.12    <-- DIS
     160      24.24312120      24.24137800       7.191E-05      0.12    <-- DIS
     161      24.24221174      24.24052932       6.941E-05      0.12    <-- DIS
     162      24.24133197      24.23970576       6.709E-05      0.12    <-- DIS
     163      24.24047962      24.23890542       6.495E-05      0.12    <-- DIS
     164      24.23965263      24.23812660       6.296E-05      0.12    <-- DIS
     165      24.23884909      24.23736769       6.112E-05      0.12    <-- DIS
     166      24.23806725      24.23662724       5.941E-05      0.12    <-- DIS
     167      24.23730552      24.23590392       5.783E-05      0.12    <-- DIS
     168      24.23656241      24.23519649       5.636E-05      0.12    <-- DIS
     169      24.23583658      24.23450384       5.499E-05      0.12    <-- DIS
     170      24.23512680      24.23382493       5.372E-05      0.12    <-- DIS
     171      24.23443192      24.23315881       5.254E-05      0.13    <-- DIS
     172      24.23375091      24.23250462       5.143E-05      0.13    <-- DIS
     173      24.23308282      24.23186155       5.040E-05      0.13    <-- DIS
     174      24.23242676      24.23122889       4.943E-05      0.13    <-- DIS
     175      24.23178193      24.23060595       4.853E-05      0.13    <-- DIS
     176      24.23114761      24.22999214       4.769E-05      0.13    <-- DIS
     177      24.23052311      24.22938688       4.689E-05      0.13    <-- DIS
     178      24.22990782      24.22878966       4.615E-05      0.13    <-- DIS
     179      24.22930118      24.22820002       4.545E-05      0.13    <-- DIS
     180      24.22870266      24.22761752       4.479E-05      0.13    <-- DIS
     181      24.22811180      24.22704177       4.417E-05      0.13    <-- DIS
     182      24.22752815      24.22647241       4.358E-05      0.13    <-- DIS
     183      24.22695133      24.22590911       4.302E-05      0.13    <-- DIS
     184      24.22638096      24.22535156       4.249E-05      0.14    <-- DIS
     185      24.22581673      24.22479951       4.199E-05      0.14    <-- DIS
     186      24.22525831      24.22425269       4.151E-05      0.14    <-- DIS
     187      24.22470545      24.22371087       4.106E-05      0.14    <-- DIS
     188      24.22415788      24.22317386       4.062E-05      0.14    <-- DIS
     189      24.22361537      24.22264145       4.021E-05      0.14    <-- DIS
     190      24.22307772      24.22211347       3.981E-05      0.14    <-- DIS
     191      24.22254472      24.22158978       3.943E-05      0.14    <-- DIS
     192      24.22201622      24.22107021       3.906E-05      0.14    <-- DIS
     193      24.22149203      24.22055465       3.870E-05      0.14    <-- DIS
     194      24.22097203      24.22004297       3.836E-05      0.14    <-- DIS
     195      24.22045608      24.21953507       3.803E-05      0.14    <-- DIS
     196      24.21994406      24.21903085       3.771E-05      0.14    <-- DIS
     197      24.21943585      24.21853022       3.739E-05      0.14    <-- DIS
     198      24.21893137      24.21803309       3.709E-05      0.15    <-- DIS
     199      24.21843051      24.21753941       3.680E-05      0.15    <-- DIS
     200      24.21793320      24.21704910       3.651E-05      0.15    <-- DIS
     201      24.21743937      24.21656210       3.623E-05      0.15    <-- DIS
     202      24.21694894      24.21607836       3.595E-05      0.15    <-- DIS
     203      24.21646186      24.21559783       3.568E-05      0.15    <-- DIS
     204      24.21597807      24.21512047       3.542E-05      0.15    <-- DIS
     205      24.21549752      24.21464624       3.516E-05      0.15    <-- DIS
     206      24.21502017      24.21417510       3.490E-05      0.15    <-- DIS
     207      24.21454598      24.21370702       3.465E-05      0.15    <-- DIS
     208      24.21407491      24.21324197       3.440E-05      0.15    <-- DIS
     209      24.21360693      24.21277994       3.416E-05      0.15    <-- DIS
     210      24.21314201      24.21232089       3.391E-05      0.15    <-- DIS
     211      24.21268011      24.21186480       3.367E-05      0.15    <-- DIS
     212      24.21222123      24.21141166       3.344E-05      0.16    <-- DIS
     213      24.21176534      24.21096146       3.320E-05      0.16    <-- DIS
     214      24.21131241      24.21051417       3.297E-05      0.16    <-- DIS
     215      24.21086244      24.21006978       3.274E-05      0.16    <-- DIS
     216      24.21041541      24.20962829       3.251E-05      0.16    <-- DIS
     217      24.20997129      24.20918968       3.229E-05      0.16    <-- DIS
     218      24.20953009      24.20875394       3.206E-05      0.16    <-- DIS
     219      24.20909179      24.20832106       3.184E-05      0.16    <-- DIS
     220      24.20865638      24.20789105       3.161E-05      0.16    <-- DIS
     221      24.20822384      24.20746388       3.139E-05      0.16    <-- DIS
     222      24.20779419      24.20703957       3.117E-05      0.16    <-- DIS
     223      24.20736739      24.20661809       3.095E-05      0.16    <-- DIS
     224      24.20694346      24.20619944       3.074E-05      0.16    <-- DIS
     225      24.20652238      24.20578363       3.052E-05      0.17    <-- DIS
     226      24.20610415      24.20537064       3.030E-05      0.17    <-- DIS
     227      24.20568876      24.20496048       3.009E-05      0.17    <-- DIS
     228      24.20527621      24.20455313       2.987E-05      0.17    <-- DIS
     229      24.20486649      24.20414860       2.966E-05      0.17    <-- DIS
     230      24.20445960      24.20374688       2.945E-05      0.17    <-- DIS
     231      24.20405554      24.20334797       2.923E-05      0.17    <-- DIS
     232      24.20365430      24.20295187       2.902E-05      0.17    <-- DIS
     233      24.20325587      24.20255856       2.881E-05      0.17    <-- DIS
     234      24.20286026      24.20216805       2.860E-05      0.17    <-- DIS
     235      24.20246746      24.20178034       2.839E-05      0.17    <-- DIS
     236      24.20207746      24.20139542       2.818E-05      0.17    <-- DIS
     237      24.20169026      24.20101329       2.797E-05      0.17    <-- DIS
     238      24.20130587      24.20063394       2.777E-05      0.17    <-- DIS
     239      24.20092426      24.20025736       2.756E-05      0.18    <-- DIS
     240      24.20054545      24.19988357       2.735E-05      0.18    <-- DIS
     241      24.20016942      24.19951254       2.714E-05      0.18    <-- DIS
     242      24.19979617      24.19914428       2.694E-05      0.18    <-- DIS
     243      24.19942569      24.19877878       2.673E-05      0.18    <-- DIS
     244      24.19905799      24.19841604       2.653E-05      0.18    <-- DIS
     245      24.19869305      24.19805604       2.632E-05      0.18    <-- DIS
     246      24.19833087      24.19769879       2.612E-05      0.18    <-- DIS
     247      24.19797144      24.19734428       2.592E-05      0.18    <-- DIS
     248      24.19761477      24.19699251       2.572E-05      0.18    <-- DIS
     249      24.19726083      24.19664346       2.551E-05      0.18    <-- DIS
     250      24.19690963      24.19629713       2.531E-05      0.18    <-- DIS
     251      24.19656117      24.19595352       2.511E-05      0.18    <-- DIS
     252      24.19621542      24.19561261       2.491E-05      0.19    <-- DIS
     253      24.19587239      24.19527440       2.472E-05      0.19    <-- DIS
     254      24.19553207      24.19493888       2.452E-05      0.19    <-- DIS
     255      24.19519445      24.19460605       2.432E-05      0.19    <-- DIS
     256      24.19485952      24.19427590       2.412E-05      0.19    <-- DIS
     257      24.19452728      24.19394841       2.393E-05      0.19    <-- DIS
     258      24.19419771      24.19362358       2.373E-05      0.19    <-- DIS
     259      24.19387081      24.19330140       2.354E-05      0.19    <-- DIS
     260      24.19354658      24.19298186       2.334E-05      0.19    <-- DIS
     261      24.19322499      24.19266495       2.315E-05      0.19    <-- DIS
     262      24.19290604      24.19235067       2.296E-05      0.19    <-- DIS
     263      24.19258973      24.19203900       2.277E-05      0.19    <-- DIS
     264      24.19227604      24.19172993       2.257E-05      0.19    <-- DIS
     265      24.19196496      24.19142345       2.238E-05      0.19    <-- DIS
     266      24.19165648      24.19111956       2.220E-05      0.20    <-- DIS
     267      24.19135060      24.19081824       2.201E-05      0.20    <-- DIS
     268      24.19104730      24.19051947       2.182E-05      0.20    <-- DIS
     269      24.19074656      24.19022326       2.163E-05      0.20    <-- DIS
     270      24.19044839      24.18992959       2.145E-05      0.20    <-- DIS
     271      24.19015277      24.18963844       2.126E-05      0.20    <-- DIS
     272      24.18985968      24.18934981       2.108E-05      0.20    <-- DIS
     273      24.18956912      24.18906368       2.090E-05      0.20    <-- DIS
     274      24.18928107      24.18878004       2.071E-05      0.20    <-- DIS
     275      24.18899552      24.18849888       2.053E-05      0.20    <-- DIS
     276      24.18871246      24.18822019       2.035E-05      0.20    <-- DIS
     277      24.18843188      24.18794396       2.017E-05      0.20    <-- DIS
     278      24.18815377      24.18767016       1.999E-05      0.20    <-- DIS
     279      24.18787810      24.18739879       1.982E-05      0.21    <-- DIS
     280      24.18760488      24.18712984       1.964E-05      0.21    <-- DIS
     281      24.18733408      24.18686329       1.946E-05      0.21    <-- DIS
     282      24.18706570      24.18659913       1.929E-05      0.21    <-- DIS
     283      24.18679972      24.18633735       1.912E-05      0.21    <-- DIS
     284      24.18653612      24.18607793       1.894E-05      0.21    <-- DIS
     285      24.18627490      24.18582086       1.877E-05      0.21    <-- DIS
     286      24.18601604      24.18556612       1.860E-05      0.21    <-- DIS
     287      24.18575952      24.18531370       1.843E-05      0.21    <-- DIS
     288      24.18550533      24.18506360       1.826E-05      0.21    <-- DIS
     289      24.18525347      24.18481578       1.810E-05      0.21    <-- DIS
     290      24.18500391      24.18457024       1.793E-05      0.21    <-- DIS
     291      24.18475663      24.18432697       1.777E-05      0.21    <-- DIS
     292      24.18451164      24.18408595       1.760E-05      0.21    <-- DIS
     293      24.18426891      24.18384716       1.744E-05      0.22    <-- DIS
     294      24.18402842      24.18361060       1.728E-05      0.22    <-- DIS
     295      24.18379017      24.18337624       1.712E-05      0.22    <-- DIS
     296      24.18355413      24.18314407       1.696E-05      0.22    <-- DIS
     297      24.18332030      24.18291409       1.680E-05      0.22    <-- DIS
     298      24.18308865      24.18268626       1.664E-05      0.22    <-- DIS
     299      24.18285919      24.18246058       1.648E-05      0.22    <-- DIS
     300      24.18263188      24.18223704       1.633E-05      0.22    <-- DIS
     301      24.18240671      24.18201561       1.617E-05      0.22    <-- DIS
     302      24.18218368      24.18179629       1.602E-05      0.22    <-- DIS
     303      24.18196276      24.18157905       1.587E-05      0.22    <-- DIS
     304      24.18174394      24.18136389       1.572E-05      0.22    <-- DIS
     305      24.18152720      24.18115078       1.557E-05      0.22    <-- DIS
     306      24.18131253      24.18093972       1.542E-05      0.23    <-- DIS
     307      24.18109992      24.18073068       1.527E-05      0.23    <-- DIS
     308      24.18088935      24.18052366       1.512E-05      0.23    <-- DIS
     309      24.18068080      24.18031864       1.498E-05      0.23    <-- DIS
     310      24.18047426      24.18011560       1.483E-05      0.23    <-- DIS
     311      24.18026972      24.17991452       1.469E-05      0.23    <-- DIS
     312      24.18006715      24.17971540       1.455E-05      0.23    <-- DIS
     313      24.17986655      24.17951821       1.441E-05      0.23    <-- DIS
     314      24.17966789      24.17932295       1.427E-05      0.23    <-- DIS
     315      24.17947117      24.17912959       1.413E-05      0.23    <-- DIS
     316      24.17927637      24.17893812       1.399E-05      0.23    <-- DIS
     317      24.17908347      24.17874853       1.385E-05      0.23    <-- DIS
     318      24.17889246      24.17856080       1.372E-05      0.23    <-- DIS
     319      24.17870332      24.17837492       1.358E-05      0.23    <-- DIS
     320      24.17851604      24.17819087       1.345E-05      0.24    <-- DIS
     321      24.17833060      24.17800863       1.332E-05      0.24    <-- DIS
     322      24.17814699      24.17782820       1.319E-05      0.24    <-- DIS
     323      24.17796519      24.17764955       1.306E-05      0.24    <-- DIS
     324      24.17778519      24.17747267       1.293E-05      0.24    <-- DIS
     325      24.17760697      24.17729755       1.280E-05      0.24    <-- DIS
     326      24.17743052      24.17712417       1.267E-05      0.24    <-- DIS
     327      24.17725582      24.17695252       1.255E-05      0.24    <-- DIS
     328      24.17708286      24.17678257       1.242E-05      0.24    <-- DIS
     329      24.17691162      24.17661433       1.230E-05      0.24    <-- DIS
     330      24.17674209      24.17644776       1.217E-05      0.24    <-- DIS
     331      24.17657425      24.17628287       1.205E-05      0.24    <-- DIS
     332      24.17640809      24.17611962       1.193E-05      0.24    <-- DIS
     333      24.17624360      24.17595802       1.181E-05      0.24    <-- DIS
     334      24.17608075      24.17579804       1.169E-05      0.25    <-- DIS
     335      24.17591954      24.17563967       1.158E-05      0.25    <-- DIS
     336      24.17575995      24.17548289       1.146E-05      0.25    <-- DIS
     337      24.17560197      24.17532769       1.135E-05      0.25    <-- DIS
     338      24.17544558      24.17517406       1.123E-05      0.25    <-- DIS
     339      24.17529076      24.17502199       1.112E-05      0.25    <-- DIS
     340      24.17513751      24.17487145       1.101E-05      0.25    <-- DIS
     341      24.17498581      24.17472243       1.089E-05      0.25    <-- DIS
     342      24.17483564      24.17457493       1.078E-05      0.25    <-- DIS
     343      24.17468699      24.17442892       1.068E-05      0.25    <-- DIS
     344      24.17453985      24.17428439       1.057E-05      0.25    <-- DIS
     345      24.17439420      24.17414133       1.046E-05      0.25    <-- DIS
     346      24.17425003      24.17399973       1.035E-05      0.25    <-- DIS
     347      24.17410733      24.17385956       1.025E-05      0.26    <-- DIS
     348      24.17396607      24.17372083       1.015E-05      0.26    <-- DIS
     349      24.17382626      24.17358351       1.004E-05      0.26    <-- DIS
     350      24.17368787      24.17344758       9.940E-06      0.26    <-- DIS
     351      24.17355089      24.17331305       9.839E-06      0.26    <-- DIS
     352      24.17341530      24.17317989       9.739E-06      0.26    <-- DIS
     353      24.17328110      24.17304809       9.639E-06      0.26    <-- DIS
     354      24.17314827      24.17291764       9.541E-06      0.26    <-- DIS
     355      24.17301680      24.17278852       9.444E-06      0.26    <-- DIS
     356      24.17288668      24.17266072       9.347E-06      0.26    <-- DIS
     357      24.17275788      24.17253424       9.252E-06      0.26    <-- DIS
     358      24.17263040      24.17240905       9.157E-06      0.26    <-- DIS
     359      24.17250423      24.17228514       9.064E-06      0.26    <-- DIS
     360      24.17237935      24.17216250       8.971E-06      0.26    <-- DIS
     361      24.17225576      24.17204112       8.879E-06      0.27    <-- DIS
     362      24.17213342      24.17192099       8.788E-06      0.27    <-- DIS
     363      24.17201235      24.17180209       8.698E-06      0.27    <-- DIS
     364      24.17189252      24.17168441       8.609E-06      0.27    <-- DIS
     365      24.17177392      24.17156794       8.521E-06      0.27    <-- DIS
     366      24.17165653      24.17145267       8.434E-06      0.27    <-- DIS
     367      24.17154035      24.17133858       8.347E-06      0.27    <-- DIS
     368      24.17142537      24.17122567       8.262E-06      0.27    <-- DIS
     369      24.17131157      24.17111392       8.177E-06      0.27    <-- DIS
     370      24.17119894      24.17100331       8.093E-06      0.27    <-- DIS
     371      24.17108746      24.17089385       8.010E-06      0.27    <-- DIS
     372      24.17097714      24.17078551       7.928E-06      0.27    <-- DIS
     373      24.17086795      24.17067828       7.847E-06      0.27    <-- DIS
     374      24.17075988      24.17057216       7.766E-06      0.28    <-- DIS
     375      24.17065292      24.17046713       7.687E-06      0.28    <-- DIS
     376      24.17054707      24.17036318       7.608E-06      0.28    <-- DIS
     377      24.17044230      24.17026031       7.530E-06      0.28    <-- DIS
     378      24.17033861      24.17015849       7.452E-06      0.28    <-- DIS
     379      24.17023599      24.17005772       7.376E-06      0.28    <-- DIS
     380      24.17013443      24.16995798       7.300E-06      0.28    <-- DIS
     381      24.17003391      24.16985927       7.225E-06      0.28    <-- DIS
     382      24.16993443      24.16976158       7.151E-06      0.28    <-- DIS
     383      24.16983597      24.16966489       7.078E-06      0.28    <-- DIS
     384      24.16973852      24.16956920       7.005E-06      0.28    <-- DIS
     385      24.16964207      24.16947449       6.934E-06      0.28    <-- DIS
     386      24.16954662      24.16938076       6.863E-06      0.28    <-- DIS
     387      24.16945215      24.16928798       6.792E-06      0.28    <-- DIS
     388      24.16935865      24.16919617       6.723E-06      0.29    <-- DIS
     389      24.16926611      24.16910529       6.654E-06      0.29    <-- DIS
     390      24.16917452      24.16901535       6.586E-06      0.29    <-- DIS
     391      24.16908388      24.16892634       6.518E-06      0.29    <-- DIS
     392      24.16899416      24.16883823       6.452E-06      0.29    <-- DIS
     393      24.16890537      24.16875104       6.386E-06      0.29    <-- DIS
     394      24.16881748      24.16866473       6.320E-06      0.29    <-- DIS
     395      24.16873050      24.16857931       6.256E-06      0.29    <-- DIS
     396      24.16864442      24.16849477       6.192E-06      0.29    <-- DIS
     397      24.16855921      24.16841110       6.129E-06      0.29    <-- DIS
     398      24.16847488      24.16832828       6.066E-06      0.29    <-- DIS
     399      24.16839141      24.16824631       6.004E-06      0.29    <-- DIS
     400      24.16830880      24.16816517       5.943E-06      0.29    <-- DIS
     401      24.16822703      24.16808487       5.882E-06      0.29    <-- DIS
     402      24.16814611      24.16800539       5.822E-06      0.30    <-- DIS
     403      24.16806600      24.16792672       5.763E-06      0.30    <-- DIS
     404      24.16798672      24.16784886       5.704E-06      0.30    <-- DIS
     405      24.16790825      24.16777179       5.646E-06      0.30    <-- DIS
     406      24.16783058      24.16769550       5.589E-06      0.30    <-- DIS
     407      24.16775370      24.16762000       5.532E-06      0.30    <-- DIS
     408      24.16767760      24.16754526       5.476E-06      0.30    <-- DIS
     409      24.16760229      24.16747129       5.420E-06      0.30    <-- DIS
     410      24.16752773      24.16739806       5.366E-06      0.30    <-- DIS
     411      24.16745394      24.16732559       5.311E-06      0.30    <-- DIS
     412      24.16738090      24.16725384       5.257E-06      0.30    <-- DIS
     413      24.16730860      24.16718283       5.204E-06      0.30    <-- DIS
     414      24.16723704      24.16711254       5.152E-06      0.30    <-- DIS
     415      24.16716620      24.16704296       5.100E-06      0.31    <-- DIS
     416      24.16709608      24.16697409       5.048E-06      0.31    <-- DIS
     417      24.16702668      24.16690591       4.997E-06      0.31    <-- DIS
     418      24.16695797      24.16683842       4.947E-06      0.31    <-- DIS
     419      24.16688996      24.16677162       4.897E-06      0.31    <-- DIS
     420      24.16682264      24.16670549       4.848E-06      0.31    <-- DIS
     421      24.16675600      24.16664002       4.799E-06      0.31    <-- DIS
     422      24.16669003      24.16657522       4.751E-06      0.31    <-- DIS
     423      24.16662473      24.16651107       4.703E-06      0.31    <-- DIS
     424      24.16656009      24.16644757       4.656E-06      0.31    <-- DIS
     425      24.16649609      24.16638470       4.609E-06      0.31    <-- DIS
     426      24.16643275      24.16632247       4.563E-06      0.31    <-- DIS
     427      24.16637003      24.16626086       4.518E-06      0.31    <-- DIS
     428      24.16630795      24.16619987       4.473E-06      0.32    <-- DIS
     429      24.16624649      24.16613949       4.428E-06      0.32    <-- DIS
     430      24.16618565      24.16607971       4.384E-06      0.32    <-- DIS
     431      24.16612542      24.16602053       4.340E-06      0.32    <-- DIS
     432      24.16606579      24.16596195       4.297E-06      0.32    <-- DIS
     433      24.16600675      24.16590394       4.254E-06      0.32    <-- DIS
     434      24.16594831      24.16584652       4.212E-06      0.32    <-- DIS
     435      24.16589045      24.16578967       4.170E-06      0.32    <-- DIS
     436      24.16583316      24.16573338       4.129E-06      0.32    <-- DIS
     437      24.16577645      24.16567765       4.088E-06      0.32    <-- DIS
     438      24.16572029      24.16562247       4.048E-06      0.32    <-- DIS
     439      24.16566470      24.16556785       4.008E-06      0.32    <-- DIS
     440      24.16560966      24.16551376       3.968E-06      0.32    <-- DIS
     441      24.16555516      24.16546021       3.929E-06      0.32    <-- DIS
     442      24.16550120      24.16540718       3.891E-06      0.33    <-- DIS
     443      24.16544778      24.16535468       3.853E-06      0.33    <-- DIS
     444      24.16539488      24.16530270       3.815E-06      0.33    <-- DIS
     445      24.16534251      24.16525123       3.777E-06      0.33    <-- DIS
     446      24.16529065      24.16520026       3.740E-06      0.33    <-- DIS
     447      24.16523930      24.16514980       3.704E-06      0.33    <-- DIS
     448      24.16518846      24.16509983       3.668E-06      0.33    <-- DIS
     449      24.16513811      24.16505035       3.632E-06      0.33    <-- DIS
     450      24.16508826      24.16500135       3.597E-06      0.33    <-- DIS
     451      24.16503890      24.16495283       3.562E-06      0.33    <-- DIS
     452      24.16499002      24.16490479       3.527E-06      0.33    <-- DIS
     453      24.16494162      24.16485721       3.493E-06      0.33    <-- DIS
     454      24.16489369      24.16481010       3.459E-06      0.33    <-- DIS
     455      24.16484622      24.16476344       3.426E-06      0.34    <-- DIS
     456      24.16479922      24.16471724       3.393E-06      0.34    <-- DIS
     457      24.16475267      24.16467148       3.360E-06      0.34    <-- DIS
     458      24.16470658      24.16462617       3.328E-06      0.34    <-- DIS
     459      24.16466093      24.16458129       3.296E-06      0.34    <-- DIS
     460      24.16461572      24.16453685       3.264E-06      0.34    <-- DIS
     461      24.16457096      24.16449284       3.233E-06      0.34    <-- DIS
     462      24.16452662      24.16444925       3.202E-06      0.34    <-- DIS
     463      24.16448271      24.16440608       3.171E-06      0.34    <-- DIS
     464      24.16443922      24.16436332       3.141E-06      0.34    <-- DIS
     465      24.16439615      24.16432097       3.111E-06      0.34    <-- DIS
     466      24.16435349      24.16427903       3.081E-06      0.34    <-- DIS
     467      24.16431124      24.16423749       3.052E-06      0.34    <-- DIS
     468      24.16426940      24.16419634       3.023E-06      0.34    <-- DIS
     469      24.16422795      24.16415559       2.995E-06      0.35    <-- DIS
     470      24.16418690      24.16411522       2.966E-06      0.35    <-- DIS
     471      24.16414624      24.16407524       2.938E-06      0.35    <-- DIS
     472      24.16410597      24.16403563       2.911E-06      0.35    <-- DIS
     473      24.16406607      24.16399641       2.883E-06      0.35    <-- DIS
     474      24.16402656      24.16395755       2.856E-06      0.35    <-- DIS
     475      24.16398742      24.16391905       2.829E-06      0.35    <-- DIS
     476      24.16394865      24.16388092       2.803E-06      0.35    <-- DIS
     477      24.16391025      24.16384315       2.777E-06      0.35    <-- DIS
     478      24.16387221      24.16380574       2.751E-06      0.35    <-- DIS
     479      24.16383452      24.16376867       2.725E-06      0.35    <-- DIS
     480      24.16379719      24.16373195       2.700E-06      0.35    <-- DIS
     481      24.16376021      24.16369558       2.675E-06      0.35    <-- DIS
     482      24.16372357      24.16365954       2.650E-06      0.36    <-- DIS
     483      24.16368728      24.16362384       2.625E-06      0.36    <-- DIS
     484      24.16365132      24.16358847       2.601E-06      0.36    <-- DIS
     485      24.16361570      24.16355343       2.577E-06      0.36    <-- DIS
     486      24.16358041      24.16351871       2.553E-06      0.36    <-- DIS
     487      24.16354545      24.16348432       2.530E-06      0.36    <-- DIS
     488      24.16351081      24.16345024       2.507E-06      0.36    <-- DIS
     489      24.16347650      24.16341648       2.484E-06      0.36    <-- DIS
     490      24.16344250      24.16338303       2.461E-06      0.36    <-- DIS
     491      24.16340881      24.16334988       2.439E-06      0.36    <-- DIS
     492      24.16337543      24.16331704       2.416E-06      0.36    <-- DIS
     493      24.16334236      24.16328450       2.394E-06      0.36    <-- DIS
     494      24.16330959      24.16325226       2.373E-06      0.36    <-- DIS
     495      24.16327712      24.16322031       2.351E-06      0.36    <-- DIS
     496      24.16324495      24.16318865       2.330E-06      0.37    <-- DIS
     497      24.16321307      24.16315728       2.309E-06      0.37    <-- DIS
     498      24.16318148      24.16312619       2.288E-06      0.37    <-- DIS
     499      24.16315018      24.16309539       2.268E-06      0.37    <-- DIS
     500      24.16311916      24.16306486       2.247E-06      0.37    <-- DIS
     501      24.16308842      24.16303461       2.227E-06      0.37    <-- DIS
     502      24.16305796      24.16300463       2.207E-06      0.37    <-- DIS
     503      24.16302778      24.16297492       2.187E-06      0.37    <-- DIS
     504      24.16299787      24.16294548       2.168E-06      0.37    <-- DIS
     505      24.16296822      24.16291630       2.149E-06      0.37    <-- DIS
     506      24.16293884      24.16288739       2.130E-06      0.37    <-- DIS
     507      24.16290973      24.16285873       2.111E-06      0.37    <-- DIS
     508      24.16288087      24.16283032       2.092E-06      0.37    <-- DIS
     509      24.16285228      24.16280217       2.074E-06      0.37    <-- DIS
     510      24.16282393      24.16277427       2.055E-06      0.38    <-- DIS
     511      24.16279584      24.16274661       2.037E-06      0.38    <-- DIS
     512      24.16276800      24.16271920       2.019E-06      0.38    <-- DIS
     513      24.16274040      24.16269204       2.002E-06      0.38    <-- DIS
     514      24.16271305      24.16266511       1.984E-06      0.38    <-- DIS
     515      24.16268594      24.16263841       1.967E-06      0.38    <-- DIS
     516      24.16265907      24.16261196       1.950E-06      0.38    <-- DIS
     517      24.16263243      24.16258573       1.933E-06      0.38    <-- DIS
     518      24.16260603      24.16255973       1.916E-06      0.38    <-- DIS
     519      24.16257986      24.16253396       1.900E-06      0.38    <-- DIS
     520      24.16255392      24.16250842       1.883E-06      0.38    <-- DIS
     521      24.16252820      24.16248309       1.867E-06      0.38    <-- DIS
     522      24.16250271      24.16245799       1.851E-06      0.38    <-- DIS
     523      24.16247743      24.16243310       1.835E-06      0.39    <-- DIS
     524      24.16245238      24.16240843       1.819E-06      0.39    <-- DIS
     525      24.16242755      24.16238397       1.804E-06      0.39    <-- DIS
     526      24.16240292      24.16235972       1.788E-06      0.39    <-- DIS
     527      24.16237852      24.16233568       1.773E-06      0.39    <-- DIS
     528      24.16235432      24.16231184       1.758E-06      0.39    <-- DIS
     529      24.16233032      24.16228821       1.743E-06      0.39    <-- DIS
     530      24.16230654      24.16226478       1.728E-06      0.39    <-- DIS
     531      24.16228296      24.16224155       1.714E-06      0.39    <-- DIS
     532      24.16225957      24.16221852       1.699E-06      0.39    <-- DIS
     533      24.16223639      24.16219568       1.685E-06      0.39    <-- DIS
     534      24.16221341      24.16217304       1.671E-06      0.39    <-- DIS
     535      24.16219061      24.16215058       1.657E-06      0.39    <-- DIS
     536      24.16216802      24.16212832       1.643E-06      0.39    <-- DIS
     537      24.16214561      24.16210624       1.629E-06      0.40    <-- DIS
     538      24.16212339      24.16208435       1.616E-06      0.40    <-- DIS
     539      24.16210136      24.16206265       1.602E-06      0.40    <-- DIS
     540      24.16207951      24.16204112       1.589E-06      0.40    <-- DIS
     541      24.16205785      24.16201978       1.576E-06      0.40    <-- DIS
     542      24.16203637      24.16199861       1.563E-06      0.40    <-- DIS
     543      24.16201506      24.16197762       1.550E-06      0.40    <-- DIS
     544      24.16199394      24.16195680       1.537E-06      0.40    <-- DIS
     545      24.16197299      24.16193615       1.525E-06      0.40    <-- DIS
     546      24.16195221      24.16191568       1.512E-06      0.40    <-- DIS
     547      24.16193161      24.16189537       1.500E-06      0.40    <-- DIS
     548      24.16191117      24.16187523       1.487E-06      0.40    <-- DIS
     549      24.16189091      24.16185526       1.475E-06      0.40    <-- DIS
     550      24.16187081      24.16183545       1.463E-06      0.41    <-- DIS
     551      24.16185087      24.16181580       1.452E-06      0.41    <-- DIS
[...]
  Sum of centres and spreads ( 19.999943,  0.049392,  7.597920 )    28.88580039
 
   1887    -0.371E-10     0.0000294435       28.8858003881       5.46  <-- CONV
        O_D=      0.0232570 O_OD=      4.7036869 O_TOT=     28.8858004 <-- SPRD
 Delta: O_D=  0.1257182E-07 O_OD= -0.1260887E-07 O_TOT= -0.3705125E-10 <-- DLTA
 ------------------------------------------------------------------------------
 Cycle:   1888
  WF centre and spread    1  (  9.641917, -9.997967,  0.624857 )     0.86478186
  WF centre and spread    2  (  9.999575,  9.866080,  0.624817 )     7.02601394
  WF centre and spread    3  (  9.999921,  9.999993,  1.907719 )    15.43532107
  WF centre and spread    4  ( -9.998891, -9.563241,  1.907827 )     3.19375776
  WF centre and spread    5  ( -9.641915, -9.999759,  0.624857 )     0.86477673
  WF centre and spread    6  (  9.999337,  9.744286,  1.907844 )     1.50114903
  Sum of centres and spreads ( 19.999943,  0.049392,  7.597920 )    28.88580039
 
   1888    -0.119E-09     0.0000359241       28.8858003880       5.46  <-- CONV
        O_D=      0.0232571 O_OD=      4.7036869 O_TOT=     28.8858004 <-- SPRD
 Delta: O_D=  0.5840687E-07 O_OD= -0.5852613E-07 O_TOT= -0.1192539E-09 <-- DLTA
 ------------------------------------------------------------------------------
 Cycle:   1889
  WF centre and spread    1  (  9.641917, -9.997967,  0.624857 )     0.86478184
  WF centre and spread    2  (  9.999575,  9.866080,  0.624817 )     7.02601410
  WF centre and spread    3  (  9.999921,  9.999993,  1.907719 )    15.43532108
  WF centre and spread    4  ( -9.998891, -9.563241,  1.907827 )     3.19375759
  WF centre and spread    5  ( -9.641915, -9.999759,  0.624857 )     0.86477674
  WF centre and spread    6  (  9.999337,  9.744286,  1.907844 )     1.50114904
  Sum of centres and spreads ( 19.999943,  0.049392,  7.597920 )    28.88580039
 
   1889    -0.103E-09     0.0000722716       28.8858003879       5.46  <-- CONV
        O_D=      0.0232571 O_OD=      4.7036869 O_TOT=     28.8858004 <-- SPRD
 Delta: O_D=  0.3340349E-08 O_OD= -0.3443549E-08 O_TOT= -0.1032028E-09 <-- DLTA
 ------------------------------------------------------------------------------
 Cycle:   1890
  WF centre and spread    1  (  9.641917, -9.997967,  0.624857 )     0.86478183
  WF centre and spread    2  (  9.999575,  9.866080,  0.624817 )     7.02601437
  WF centre and spread    3  (  9.999921,  9.999993,  1.907719 )    15.43532109
  WF centre and spread    4  ( -9.998891, -9.563241,  1.907827 )     3.19375731
  WF centre and spread    5  ( -9.641915, -9.999759,  0.624857 )     0.86477675
  WF centre and spread    6  (  9.999337,  9.744286,  1.907844 )     1.50114904
  Sum of centres and spreads ( 19.999943,  0.049392,  7.597920 )    28.88580039
 
   1890    -0.314E-10     0.0000338636       28.8858003879       5.46  <-- CONV
        O_D=      0.0232571 O_OD=      4.7036869 O_TOT=     28.8858004 <-- SPRD
 Delta: O_D=  0.5652481E-08 O_OD= -0.5683855E-08 O_TOT= -0.3137401E-10 <-- DLTA
 ------------------------------------------------------------------------------
 Cycle:   1891
  WF centre and spread    1  (  9.641917, -9.997967,  0.624857 )     0.86478180
  WF centre and spread    2  (  9.999575,  9.866080,  0.624817 )     7.02601553
  WF centre and spread    3  (  9.999921,  9.999993,  1.907720 )    15.43532111
  WF centre and spread    4  ( -9.998891, -9.563241,  1.907827 )     3.19375610
  WF centre and spread    5  ( -9.641915, -9.999759,  0.624857 )     0.86477676
  WF centre and spread    6  (  9.999337,  9.744286,  1.907844 )     1.50114909
  Sum of centres and spreads ( 19.999944,  0.049392,  7.597921 )    28.88580039
 
   1891    -0.613E-10     0.0000289016       28.8858003878       5.46  <-- CONV
        O_D=      0.0232571 O_OD=      4.7036868 O_TOT=     28.8858004 <-- SPRD
 Delta: O_D=  0.2444280E-07 O_OD= -0.2450406E-07 O_TOT= -0.6125944E-10 <-- DLTA
 ------------------------------------------------------------------------------
 Cycle:   1892
  WF centre and spread    1  (  9.641916, -9.997968,  0.624857 )     0.86478177
  WF centre and spread    2  (  9.999575,  9.866081,  0.624817 )     7.02601796
  WF centre and spread    3  (  9.999921,  9.999993,  1.907720 )    15.43532114
  WF centre and spread    4  ( -9.998891, -9.563241,  1.907827 )     3.19375359
  WF centre and spread    5  ( -9.641915, -9.999760,  0.624857 )     0.86477676
  WF centre and spread    6  (  9.999337,  9.744286,  1.907844 )     1.50114917
  Sum of centres and spreads ( 19.999944,  0.049392,  7.597920 )    28.88580039
 
   1892    -0.102E-09     0.0000454906       28.8858003877       5.47  <-- CONV
        O_D=      0.0232571 O_OD=      4.7036868 O_TOT=     28.8858004 <-- SPRD
 Delta: O_D=  0.5147120E-07 O_OD= -0.5157291E-07 O_TOT= -0.1017035E-09 <-- DLTA
 ------------------------------------------------------------------------------
 Cycle:   1893
  WF centre and spread    1  (  9.641916, -9.997971,  0.624857 )     0.86478178
  WF centre and spread    2  (  9.999575,  9.866088,  0.624817 )     7.02603356
  WF centre and spread    3  (  9.999921,  9.999993,  1.907719 )    15.43532122
  WF centre and spread    4  ( -9.998891, -9.563240,  1.907827 )     3.19373739
  WF centre and spread    5  ( -9.641914, -9.999763,  0.624857 )     0.86477671
  WF centre and spread    6  (  9.999337,  9.744286,  1.907844 )     1.50114973
  Sum of centres and spreads ( 19.999944,  0.049393,  7.597920 )    28.88580039
 
   1893    -0.566E-09     0.0000661251       28.8858003871       5.47  <-- CONV
        O_D=      0.0232575 O_OD=      4.7036864 O_TOT=     28.8858004 <-- SPRD
 Delta: O_D=  0.3311824E-06 O_OD= -0.3317487E-06 O_TOT= -0.5663772E-09 <-- DLTA
 ------------------------------------------------------------------------------
 Cycle:   1894
  WF centre and spread    1  (  9.641915, -9.997973,  0.624857 )     0.86478177
  WF centre and spread    2  (  9.999575,  9.866091,  0.624817 )     7.02603975
  WF centre and spread    3  (  9.999921,  9.999993,  1.907719 )    15.43532126
  WF centre and spread    4  ( -9.998891, -9.563240,  1.907827 )     3.19373097
  WF centre and spread    5  ( -9.641914, -9.999765,  0.624857 )     0.86477669
  WF centre and spread    6  (  9.999337,  9.744286,  1.907844 )     1.50114995
  Sum of centres and spreads ( 19.999944,  0.049393,  7.597920 )    28.88580039
 
   1894    -0.231E-09     0.0001087236       28.8858003869       5.47  <-- CONV
        O_D=      0.0232576 O_OD=      4.7036863 O_TOT=     28.8858004 <-- SPRD
 Delta: O_D=  0.1312773E-06 O_OD= -0.1315084E-06 O_TOT= -0.2311040E-09 <-- DLTA
 ------------------------------------------------------------------------------
 Cycle:   1895
  WF centre and spread    1  (  9.641915, -9.997973,  0.624857 )     0.86478172
  WF centre and spread    2  (  9.999575,  9.866091,  0.624817 )     7.02604011
  WF centre and spread    3  (  9.999921,  9.999993,  1.907719 )    15.43532128
  WF centre and spread    4  ( -9.998891, -9.563240,  1.907827 )     3.19373060
  WF centre and spread    5  ( -9.641914, -9.999765,  0.624857 )     0.86477672
  WF centre and spread    6  (  9.999337,  9.744286,  1.907844 )     1.50114996
  Sum of centres and spreads ( 19.999944,  0.049393,  7.597920 )    28.88580039
 
   1895    -0.330E-09     0.0000814495       28.8858003866       5.47  <-- CONV
        O_D=      0.0232576 O_OD=      4.7036863 O_TOT=     28.8858004 <-- SPRD
 Delta: O_D=  0.7808280E-08 O_OD= -0.8138570E-08 O_TOT= -0.3302922E-09 <-- DLTA
 ------------------------------------------------------------------------------
 Cycle:   1896
  WF centre and spread    1  (  9.641915, -9.997973,  0.624857 )     0.86478164
  WF centre and spread    2  (  9.999575,  9.866091,  0.624817 )     7.02604100
  WF centre and spread    3  (  9.999921,  9.999993,  1.907719 )    15.43532132
  WF centre and spread    4  ( -9.998891, -9.563240,  1.907827 )     3.19372969
  WF centre and spread    5  ( -9.641914, -9.999765,  0.624857 )     0.86477677
  WF centre and spread    6  (  9.999337,  9.744286,  1.907844 )     1.50114998
  Sum of centres and spreads ( 19.999944,  0.049393,  7.597920 )    28.88580039
 
   1896    -0.562E-09     0.0001192983       28.8858003860       5.47  <-- CONV
        O_D=      0.0232576 O_OD=      4.7036863 O_TOT=     28.8858004 <-- SPRD
 Delta: O_D=  0.1918532E-07 O_OD= -0.1974742E-07 O_TOT= -0.5620961E-09 <-- DLTA
 ------------------------------------------------------------------------------
 Cycle:   1897
  WF centre and spread    1  (  9.641915, -9.997973,  0.624857 )     0.86478166
  WF centre and spread    2  (  9.999575,  9.866091,  0.624817 )     7.02604128
  WF centre and spread    3  (  9.999921,  9.999993,  1.907719 )    15.43532131
  WF centre and spread    4  ( -9.998891, -9.563240,  1.907827 )     3.19372939
  WF centre and spread    5  ( -9.641914, -9.999765,  0.624857 )     0.86477676
  WF centre and spread    6  (  9.999337,  9.744286,  1.907844 )     1.50114999
  Sum of centres and spreads ( 19.999944,  0.049393,  7.597920 )    28.88580039
 
   1897    -0.735E-10     0.0000535527       28.8858003859       5.47  <-- CONV
        O_D=      0.0232576 O_OD=      4.7036863 O_TOT=     28.8858004 <-- SPRD
 Delta: O_D=  0.6093389E-08 O_OD= -0.6166912E-08 O_TOT= -0.7352696E-10 <-- DLTA
 ------------------------------------------------------------------------------
 Cycle:   1898
  WF centre and spread    1  (  9.641915, -9.997973,  0.624857 )     0.86478169
  WF centre and spread    2  (  9.999575,  9.866092,  0.624817 )     7.02604165
  WF centre and spread    3  (  9.999921,  9.999993,  1.907719 )    15.43532129
  WF centre and spread    4  ( -9.998891, -9.563240,  1.907827 )     3.19372901
  WF centre and spread    5  ( -9.641914, -9.999765,  0.624857 )     0.86477674
  WF centre and spread    6  (  9.999337,  9.744286,  1.907844 )     1.50115000
  Sum of centres and spreads ( 19.999943,  0.049393,  7.597920 )    28.88580039
 
   1898    -0.409E-10     0.0000358976       28.8858003859       5.48  <-- CONV
        O_D=      0.0232577 O_OD=      4.7036863 O_TOT=     28.8858004 <-- SPRD
 Delta: O_D=  0.7897055E-08 O_OD= -0.7937913E-08 O_TOT= -0.4085621E-10 <-- DLTA
 ------------------------------------------------------------------------------
 Cycle:   1899
  WF centre and spread    1  (  9.641915, -9.997973,  0.624857 )     0.86478170
  WF centre and spread    2  (  9.999575,  9.866092,  0.624817 )     7.02604216
  WF centre and spread    3  (  9.999921,  9.999993,  1.907719 )    15.43532128
  WF centre and spread    4  ( -9.998891, -9.563240,  1.907827 )     3.19372849
  WF centre and spread    5  ( -9.641913, -9.999765,  0.624857 )     0.86477674
  WF centre and spread    6  (  9.999337,  9.744286,  1.907844 )     1.50115002
  Sum of centres and spreads ( 19.999943,  0.049393,  7.597920 )    28.88580039
 
   1899    -0.265E-10     0.0000234968       28.8858003859       5.48  <-- CONV
        O_D=      0.0232577 O_OD=      4.7036863 O_TOT=     28.8858004 <-- SPRD
 Delta: O_D=  0.1103008E-07 O_OD= -0.1105655E-07 O_TOT= -0.2647127E-10 <-- DLTA
 ------------------------------------------------------------------------------
 Cycle:   1900
  WF centre and spread    1  (  9.641915, -9.997974,  0.624857 )     0.86478170
  WF centre and spread    2  (  9.999575,  9.866093,  0.624817 )     7.02604417
  WF centre and spread    3  (  9.999921,  9.999993,  1.907719 )    15.43532130
  WF centre and spread    4  ( -9.998891, -9.563240,  1.907827 )     3.19372641
  WF centre and spread    5  ( -9.641913, -9.999766,  0.624857 )     0.86477673
  WF centre and spread    6  (  9.999337,  9.744286,  1.907844 )     1.50115008
  Sum of centres and spreads ( 19.999943,  0.049393,  7.597920 )    28.88580039
 
   1900    -0.873E-10     0.0000284119       28.8858003858       5.48  <-- CONV
        O_D=      0.0232577 O_OD=      4.7036862 O_TOT=     28.8858004 <-- SPRD
 Delta: O_D=  0.4305576E-07 O_OD= -0.4314303E-07 O_TOT= -0.8727241E-10 <-- DLTA
 ------------------------------------------------------------------------------

 Writing checkpoint file carbyne.chk... done

 Cycle:   1901
  WF centre and spread    1  (  9.641915, -9.997974,  0.624857 )     0.86478168
  WF centre and spread    2  (  9.999575,  9.866093,  0.624817 )     7.02604431
  WF centre and spread    3  (  9.999921,  9.999993,  1.907719 )    15.43532130
  WF centre and spread    4  ( -9.998891, -9.563240,  1.907827 )     3.19372627
  WF centre and spread    5  ( -9.641913, -9.999766,  0.624857 )     0.86477674
  WF centre and spread    6  (  9.999337,  9.744286,  1.907844 )     1.50115008
  Sum of centres and spreads ( 19.999943,  0.049393,  7.597920 )    28.88580039
 
   1901    -0.605E-10     0.0000552965       28.8858003857       5.48  <-- CONV
        O_D=      0.0232577 O_OD=      4.7036862 O_TOT=     28.8858004 <-- SPRD
 Delta: O_D=  0.2937792E-08 O_OD= -0.2998295E-08 O_TOT= -0.6050271E-10 <-- DLTA
 ------------------------------------------------------------------------------
 Cycle:   1902
  WF centre and spread    1  (  9.641915, -9.997974,  0.624857 )     0.86478167
  WF centre and spread    2  (  9.999575,  9.866093,  0.624817 )     7.02604458
  WF centre and spread    3  (  9.999921,  9.999993,  1.907719 )    15.43532131
  WF centre and spread    4  ( -9.998891, -9.563240,  1.907827 )     3.19372598
  WF centre and spread    5  ( -9.641913, -9.999766,  0.624857 )     0.86477675
  WF centre and spread    6  (  9.999337,  9.744286,  1.907844 )     1.50115009
  Sum of centres and spreads ( 19.999943,  0.049393,  7.597920 )    28.88580039
 
   1902    -0.232E-10     0.0000272763       28.8858003857       5.49  <-- CONV
        O_D=      0.0232577 O_OD=      4.7036862 O_TOT=     28.8858004 <-- SPRD
 Delta: O_D=  0.5731448E-08 O_OD= -0.5754665E-08 O_TOT= -0.2321698E-10 <-- DLTA
 ------------------------------------------------------------------------------
 Cycle:   1903
  WF centre and spread    1  (  9.641915, -9.997974,  0.624857 )     0.86478162
  WF centre and spread    2  (  9.999575,  9.866093,  0.624817 )     7.02604599
  WF centre and spread    3  (  9.999921,  9.999993,  1.907719 )    15.43532134
  WF centre and spread    4  ( -9.998891, -9.563240,  1.907827 )     3.19372453
  WF centre and spread    5  ( -9.641913, -9.999766,  0.624857 )     0.86477676
  WF centre and spread    6  (  9.999337,  9.744286,  1.907844 )     1.50115013
  Sum of centres and spreads ( 19.999944,  0.049393,  7.597920 )    28.88580039
 
   1903    -0.434E-10     0.0000252731       28.8858003857       5.49  <-- CONV
        O_D=      0.0232577 O_OD=      4.7036862 O_TOT=     28.8858004 <-- SPRD
 Delta: O_D=  0.2982781E-07 O_OD= -0.2987121E-07 O_TOT= -0.4340350E-10 <-- DLTA
 ------------------------------------------------------------------------------
 Cycle:   1904
  WF centre and spread    1  (  9.641915, -9.997974,  0.624857 )     0.86478164
  WF centre and spread    2  (  9.999575,  9.866094,  0.624817 )     7.02604611
  WF centre and spread    3  (  9.999921,  9.999993,  1.907719 )    15.43532134
  WF centre and spread    4  ( -9.998891, -9.563240,  1.907827 )     3.19372441
  WF centre and spread    5  ( -9.641913, -9.999766,  0.624857 )     0.86477676
  WF centre and spread    6  (  9.999337,  9.744286,  1.907844 )     1.50115014
  Sum of centres and spreads ( 19.999944,  0.049393,  7.597920 )    28.88580039
 
   1904    -0.487E-10     0.0000528328       28.8858003856       5.49  <-- CONV
        O_D=      0.0232577 O_OD=      4.7036862 O_TOT=     28.8858004 <-- SPRD
 Delta: O_D=  0.2652349E-08 O_OD= -0.2701038E-08 O_TOT= -0.4868639E-10 <-- DLTA
 ------------------------------------------------------------------------------
 Cycle:   1905
  WF centre and spread    1  (  9.641915, -9.997974,  0.624857 )     0.86478168
  WF centre and spread    2  (  9.999575,  9.866094,  0.624817 )     7.02604650
  WF centre and spread    3  (  9.999921,  9.999993,  1.907719 )    15.43532132
  WF centre and spread    4  ( -9.998891, -9.563240,  1.907827 )     3.19372400
  WF centre and spread    5  ( -9.641913, -9.999766,  0.624857 )     0.86477674
  WF centre and spread    6  (  9.999337,  9.744286,  1.907844 )     1.50115015
  Sum of centres and spreads ( 19.999943,  0.049393,  7.597920 )    28.88580039
 
   1905    -0.364E-10     0.0000302710       28.8858003856       5.49  <-- CONV
        O_D=      0.0232578 O_OD=      4.7036862 O_TOT=     28.8858004 <-- SPRD
 Delta: O_D=  0.8664094E-08 O_OD= -0.8700480E-08 O_TOT= -0.3638689E-10 <-- DLTA
 ------------------------------------------------------------------------------
 Cycle:   1906
  WF centre and spread    1  (  9.641915, -9.997974,  0.624857 )     0.86478169
  WF centre and spread    2  (  9.999575,  9.866094,  0.624817 )     7.02604706
  WF centre and spread    3  (  9.999921,  9.999993,  1.907719 )    15.43532132
  WF centre and spread    4  ( -9.998891, -9.563240,  1.907827 )     3.19372342
  WF centre and spread    5  ( -9.641913, -9.999766,  0.624857 )     0.86477673
  WF centre and spread    6  (  9.999337,  9.744286,  1.907844 )     1.50115017
  Sum of centres and spreads ( 19.999943,  0.049393,  7.597920 )    28.88580039
 
   1906    -0.195E-10     0.0000261756       28.8858003855       5.49  <-- CONV
        O_D=      0.0232578 O_OD=      4.7036862 O_TOT=     28.8858004 <-- SPRD
 Delta: O_D=  0.1193809E-07 O_OD= -0.1195761E-07 O_TOT= -0.1951861E-10 <-- DLTA
 ------------------------------------------------------------------------------

             <<<     Delta < 1.000E-10  over 10 iterations     >>>
             <<< Wannierisation convergence criteria satisfied >>>

 Final State
  WF centre and spread    1  (  9.641915, -9.997974,  0.624857 )     0.86478169
  WF centre and spread    2  (  9.999575,  9.866094,  0.624817 )     7.02604706
  WF centre and spread    3  (  9.999921,  9.999993,  1.907719 )    15.43532132
  WF centre and spread    4  ( -9.998891, -9.563240,  1.907827 )     3.19372342
  WF centre and spread    5  ( -9.641913, -9.999766,  0.624857 )     0.86477673
  WF centre and spread    6  (  9.999337,  9.744286,  1.907844 )     1.50115017
  Sum of centres and spreads ( 19.999943,  0.049393,  7.597920 )    28.88580039
 
         Spreads (Ang^2)       Omega I      =    24.158856457
        ================       Omega D      =     0.023257769
                               Omega OD     =     4.703686159
    Final Spread (Ang^2)       Omega Total  =    28.885800386
 ------------------------------------------------------------------------------

 Writing checkpoint file carbyne.chk... done

 Time for wannierise            3.268 (sec)
 *---------------------------------------------------------------------------*
 |                               PLOTTING                                    |
 *---------------------------------------------------------------------------*
 
 Time for plotting              0.055 (sec)
 Total Execution Time           5.034 (sec)

 *===========================================================================*
 |                             TIMING INFORMATION                            |
 *===========================================================================*
 |    Tag                                                Ncalls      Time (s)|
 |---------------------------------------------------------------------------|
 |kmesh: get                                        :         2         0.044|
 |kmesh: write                                      :         1         0.003|
 |overlap: allocate                                 :         1         0.000|
 |dis: main                                         :         1         1.685|
 |wann: main                                        :         1         3.267|
 |plot: main                                        :         1         0.055|
 *---------------------------------------------------------------------------*
 
 All done: wannier90 exiting
