 written on 20Jun2021 at 09:09:34 
          20           6
    0.000000    0.000000    0.122432   33.356358
    0.000000    0.000000   -0.122432   33.356358
    0.314159    0.000000    0.000000    5.066059
    0.000000    0.314159    0.000000    5.066059
    0.000000   -0.314159    0.000000    5.066059
   -0.314159    0.000000    0.000000    5.066059
    0.000000    0.000000   -0.122432   33.356358
    0.000000    0.000000    0.122432   33.356358
    0.314159    0.000000    0.000000    5.066059
    0.000000    0.314159    0.000000    5.066059
    0.000000   -0.314159    0.000000    5.066059
   -0.314159    0.000000    0.000000    5.066059
    0.000000    0.000000   -0.122432   33.356358
    0.000000    0.000000    0.122432   33.356358
    0.314159    0.000000    0.000000    5.066059
    0.000000    0.314159    0.000000    5.066059
    0.000000   -0.314159    0.000000    5.066059
   -0.314159    0.000000    0.000000    5.066059
    0.000000    0.000000   -0.122432   33.356358
    0.000000    0.000000    0.122432   33.356358
    0.314159    0.000000    0.000000    5.066059
    0.000000    0.314159    0.000000    5.066059
    0.000000   -0.314159    0.000000    5.066059
   -0.314159    0.000000    0.000000    5.066059
    0.000000    0.000000   -0.122432   33.356358
    0.000000    0.000000    0.122432   33.356358
    0.314159    0.000000    0.000000    5.066059
    0.000000    0.314159    0.000000    5.066059
    0.000000   -0.314159    0.000000    5.066059
   -0.314159    0.000000    0.000000    5.066059
    0.000000    0.000000   -0.122432   33.356358
    0.000000    0.000000    0.122432   33.356358
    0.314159    0.000000    0.000000    5.066059
    0.000000    0.314159    0.000000    5.066059
    0.000000   -0.314159    0.000000    5.066059
   -0.314159    0.000000    0.000000    5.066059
    0.000000    0.000000   -0.122432   33.356358
    0.000000    0.000000    0.122432   33.356358
    0.314159    0.000000    0.000000    5.066059
    0.000000    0.314159    0.000000    5.066059
    0.000000   -0.314159    0.000000    5.066059
   -0.314159    0.000000    0.000000    5.066059
    0.000000    0.000000   -0.122432   33.356358
    0.000000    0.000000    0.122432   33.356358
    0.314159    0.000000    0.000000    5.066059
    0.000000    0.314159    0.000000    5.066059
    0.000000   -0.314159    0.000000    5.066059
   -0.314159    0.000000    0.000000    5.066059
    0.000000    0.000000   -0.122432   33.356358
    0.000000    0.000000    0.122432   33.356358
    0.314159    0.000000    0.000000    5.066059
    0.000000    0.314159    0.000000    5.066059
    0.000000   -0.314159    0.000000    5.066059
   -0.314159    0.000000    0.000000    5.066059
    0.000000    0.000000   -0.122432   33.356358
    0.000000    0.000000    0.122432   33.356358
    0.314159    0.000000    0.000000    5.066059
    0.000000    0.314159    0.000000    5.066059
    0.000000   -0.314159    0.000000    5.066059
   -0.314159    0.000000    0.000000    5.066059
    0.000000    0.000000   -0.122432   33.356358
    0.000000    0.000000    0.122432   33.356358
    0.314159    0.000000    0.000000    5.066059
    0.000000    0.314159    0.000000    5.066059
    0.000000   -0.314159    0.000000    5.066059
   -0.314159    0.000000    0.000000    5.066059
    0.000000    0.000000   -0.122432   33.356358
    0.000000    0.000000    0.122432   33.356358
    0.314159    0.000000    0.000000    5.066059
    0.000000    0.314159    0.000000    5.066059
    0.000000   -0.314159    0.000000    5.066059
   -0.314159    0.000000    0.000000    5.066059
    0.000000    0.000000   -0.122432   33.356358
    0.000000    0.000000    0.122432   33.356358
    0.314159    0.000000    0.000000    5.066059
    0.000000    0.314159    0.000000    5.066059
    0.000000   -0.314159    0.000000    5.066059
   -0.314159    0.000000    0.000000    5.066059
    0.000000    0.000000   -0.122432   33.356358
    0.000000    0.000000    0.122432   33.356358
    0.314159    0.000000    0.000000    5.066059
    0.000000    0.314159    0.000000    5.066059
    0.000000   -0.314159    0.000000    5.066059
   -0.314159    0.000000    0.000000    5.066059
    0.000000    0.000000   -0.122432   33.356358
    0.000000    0.000000    0.122432   33.356358
    0.314159    0.000000    0.000000    5.066059
    0.000000    0.314159    0.000000    5.066059
    0.000000   -0.314159    0.000000    5.066059
   -0.314159    0.000000    0.000000    5.066059
    0.000000    0.000000   -0.122432   33.356358
    0.000000    0.000000    0.122432   33.356358
    0.314159    0.000000    0.000000    5.066059
    0.000000    0.314159    0.000000    5.066059
    0.000000   -0.314159    0.000000    5.066059
   -0.314159    0.000000    0.000000    5.066059
    0.000000    0.000000   -0.122432   33.356358
    0.000000    0.000000    0.122432   33.356358
    0.314159    0.000000    0.000000    5.066059
    0.000000    0.314159    0.000000    5.066059
    0.000000   -0.314159    0.000000    5.066059
   -0.314159    0.000000    0.000000    5.066059
    0.000000    0.000000   -0.122432   33.356358
    0.000000    0.000000    0.122432   33.356358
    0.314159    0.000000    0.000000    5.066059
    0.000000    0.314159    0.000000    5.066059
    0.000000   -0.314159    0.000000    5.066059
   -0.314159    0.000000    0.000000    5.066059
    0.000000    0.000000   -0.122432   33.356358
    0.000000    0.000000    0.122432   33.356358
    0.314159    0.000000    0.000000    5.066059
    0.000000    0.314159    0.000000    5.066059
    0.000000   -0.314159    0.000000    5.066059
   -0.314159    0.000000    0.000000    5.066059
    0.000000    0.000000   -0.122432   33.356358
    0.000000    0.000000    0.122432   33.356358
    0.314159    0.000000    0.000000    5.066059
    0.000000    0.314159    0.000000    5.066059
    0.000000   -0.314159    0.000000    5.066059
   -0.314159    0.000000    0.000000    5.066059
