
     Program PWSCF v.6.7MaX starts on 20Jun2021 at  9: 8:19 

     This program is part of the open-source Quantum ESPRESSO suite
     for quantum simulation of materials; please cite
         "P. Giannozzi et al., J. Phys.:Condens. Matter 21 395502 (2009);
         "P. Giannozzi et al., J. Phys.:Condens. Matter 29 465901 (2017);
          URL http://www.quantum-espresso.org", 
     in publications or presentations arising from this work. More details at
     http://www.quantum-espresso.org/quote

     Parallel version (MPI & OpenMP), running on      56 processor cores
     Number of MPI processes:                28
     Threads/MPI process:                     2

     MPI processes distributed on     1 nodes
     K-points division:     npool     =       4
     R & G space division:  proc/nbgrp/npool/nimage =       7
     Waiting for input...
     Reading input from standard input
Warning: card &IONS ignored
Warning: card     ION_DYNAMICS = "BFGS" ignored
Warning: card / ignored

     Current dimensions of program PWSCF are:
     Max number of different atomic species (ntypx) = 10
     Max number of k-points (npk) =  40000
     Max angular momentum in pseudopotentials (lmaxx) =  3
     Message from routine iosys:
     wrong startingpot: use default (2)

     Atomic positions and unit cell read from directory:
     ./outdir/carbyne.save/
     Atomic positions from file used, from input discarded
 
     file C.pbe-n-kjpaw_psl.1.0.0.UPF: wavefunction(s)  2S 2P renormalized

     Subspace diagonalization in iterative solution of the eigenvalue problem:
     one sub-group per band group will be used
     scalapack distributed-memory algorithm (size of sub-group:  2*  2 procs)

     Message from routine setup:
     using ibrav=0 with symmetry is DISCOURAGED, use correct ibrav instead
 
     Parallelization info
     --------------------
     sticks:   dense  smooth     PW     G-vecs:    dense   smooth      PW
     Min        8121    3246   1116               186828    47197    9593
     Max        8123    3248   1118               186829    47198    9594
     Sum       56853   22733   7817              1307799   330385   67157
 


     bravais-lattice index     =            0
     lattice parameter (alat)  =      37.7945  a.u.
     unit-cell volume          =    6926.4511 (a.u.)^3
     number of atoms/cell      =            2
     number of atomic types    =            1
     number of electrons       =         8.00
     number of Kohn-Sham states=            8
     kinetic-energy cutoff     =      50.0000  Ry
     charge density cutoff     =     500.0000  Ry
     Exchange-correlation= SLA  PW   PBX  PBC
                           (   1   4   3   4   0   0   0)

     celldm(1)=  37.794522  celldm(2)=   0.000000  celldm(3)=   0.000000
     celldm(4)=   0.000000  celldm(5)=   0.000000  celldm(6)=   0.000000

     crystal axes: (cart. coord. in units of alat)
               a(1) = (   1.000000   0.000000   0.000000 )  
               a(2) = (   0.000000   1.000000   0.000000 )  
               a(3) = (   0.000000   0.000000   0.128299 )  

     reciprocal axes: (cart. coord. in units 2 pi/alat)
               b(1) = (  1.000000  0.000000  0.000000 )  
               b(2) = (  0.000000  1.000000  0.000000 )  
               b(3) = (  0.000000  0.000000  7.794277 )  


     PseudoPot. # 1 for C  read from file:
     ./pseudo/C.pbe-n-kjpaw_psl.1.0.0.UPF
     MD5 check sum: 6fec8efd722f5d988670a8dc528584a2
     Pseudo is Projector augmented-wave + core cor, Zval =  4.0
     Generated using "atomic" code by A. Dal Corso  v.5.1.2
     Shape of augmentation charge: PSQ
     Using radial grid of 1073 points,  4 beta functions with: 
                l(1) =   0
                l(2) =   0
                l(3) =   1
                l(4) =   1
     Q(r) pseudized with 0 coefficients 


     atomic species   valence    mass     pseudopotential
        C              4.00    12.01070     C ( 1.00)

      8 Sym. Ops. (no inversion) found


                                    s                        frac. trans.

      isym =  1     identity                                     

 cryst.   s( 1) = (     1          0          0      )
                  (     0          1          0      )
                  (     0          0          1      )

 cart.    s( 1) = (  1.0000000  0.0000000  0.0000000 )
                  (  0.0000000  1.0000000  0.0000000 )
                  (  0.0000000  0.0000000  1.0000000 )


      isym =  2     180 deg rotation - cart. axis [0,0,1]        

 cryst.   s( 2) = (    -1          0          0      )
                  (     0         -1          0      )
                  (     0          0          1      )

 cart.    s( 2) = ( -1.0000000  0.0000000  0.0000000 )
                  (  0.0000000 -1.0000000  0.0000000 )
                  (  0.0000000  0.0000000  1.0000000 )


      isym =  3      90 deg rotation - cart. axis [0,0,-1]       

 cryst.   s( 3) = (     0         -1          0      )
                  (     1          0          0      )
                  (     0          0          1      )

 cart.    s( 3) = (  0.0000000  1.0000000  0.0000000 )
                  ( -1.0000000  0.0000000  0.0000000 )
                  (  0.0000000  0.0000000  1.0000000 )


      isym =  4      90 deg rotation - cart. axis [0,0,1]        

 cryst.   s( 4) = (     0          1          0      )
                  (    -1          0          0      )
                  (     0          0          1      )

 cart.    s( 4) = (  0.0000000 -1.0000000  0.0000000 )
                  (  1.0000000  0.0000000  0.0000000 )
                  (  0.0000000  0.0000000  1.0000000 )


      isym =  5     inv. 180 deg rotation - cart. axis [0,1,0]   

 cryst.   s( 5) = (     1          0          0      )
                  (     0         -1          0      )
                  (     0          0          1      )

 cart.    s( 5) = (  1.0000000  0.0000000  0.0000000 )
                  (  0.0000000 -1.0000000  0.0000000 )
                  (  0.0000000  0.0000000  1.0000000 )


      isym =  6     inv. 180 deg rotation - cart. axis [1,0,0]   

 cryst.   s( 6) = (    -1          0          0      )
                  (     0          1          0      )
                  (     0          0          1      )

 cart.    s( 6) = ( -1.0000000  0.0000000  0.0000000 )
                  (  0.0000000  1.0000000  0.0000000 )
                  (  0.0000000  0.0000000  1.0000000 )


      isym =  7     inv. 180 deg rotation - cart. axis [1,1,0]   

 cryst.   s( 7) = (     0         -1          0      )
                  (    -1          0          0      )
                  (     0          0          1      )

 cart.    s( 7) = (  0.0000000 -1.0000000  0.0000000 )
                  ( -1.0000000  0.0000000  0.0000000 )
                  (  0.0000000  0.0000000  1.0000000 )


      isym =  8     inv. 180 deg rotation - cart. axis [1,-1,0]  

 cryst.   s( 8) = (     0          1          0      )
                  (     1          0          0      )
                  (     0          0          1      )

 cart.    s( 8) = (  0.0000000  1.0000000  0.0000000 )
                  (  1.0000000  0.0000000  0.0000000 )
                  (  0.0000000  0.0000000  1.0000000 )


   Cartesian axes

     site n.     atom                  positions (alat units)
         1           C   tau(   1) = (   0.5000000   0.5000000  -0.0000988  )
         2           C   tau(   2) = (   0.5000000   0.5000000   0.0625851  )

   Crystallographic axes

     site n.     atom                  positions (cryst. coord.)
         1           C   tau(   1) = (  0.5000000  0.5000000 -0.0007699  )
         2           C   tau(   2) = (  0.5000000  0.5000000  0.4878054  )

     number of k points=    20
                       cart. coord. in units 2pi/alat
        k(    1) = (   0.0000000   0.0000000   0.0000000), wk =   0.1000000
        k(    2) = (   0.0000000   0.0000000   0.3897138), wk =   0.1000000
        k(    3) = (   0.0000000   0.0000000   0.7794277), wk =   0.1000000
        k(    4) = (   0.0000000   0.0000000   1.1691415), wk =   0.1000000
        k(    5) = (   0.0000000   0.0000000   1.5588553), wk =   0.1000000
        k(    6) = (   0.0000000   0.0000000   1.9485691), wk =   0.1000000
        k(    7) = (   0.0000000   0.0000000   2.3382830), wk =   0.1000000
        k(    8) = (   0.0000000   0.0000000   2.7279968), wk =   0.1000000
        k(    9) = (   0.0000000   0.0000000   3.1177106), wk =   0.1000000
        k(   10) = (   0.0000000   0.0000000   3.5074245), wk =   0.1000000
        k(   11) = (   0.0000000   0.0000000   3.8971383), wk =   0.1000000
        k(   12) = (   0.0000000   0.0000000   4.2868521), wk =   0.1000000
        k(   13) = (   0.0000000   0.0000000   4.6765660), wk =   0.1000000
        k(   14) = (   0.0000000   0.0000000   5.0662798), wk =   0.1000000
        k(   15) = (   0.0000000   0.0000000   5.4559936), wk =   0.1000000
        k(   16) = (   0.0000000   0.0000000   5.8457074), wk =   0.1000000
        k(   17) = (   0.0000000   0.0000000   6.2354213), wk =   0.1000000
        k(   18) = (   0.0000000   0.0000000   6.6251351), wk =   0.1000000
        k(   19) = (   0.0000000   0.0000000   7.0148489), wk =   0.1000000
        k(   20) = (   0.0000000   0.0000000   7.4045628), wk =   0.1000000

                       cryst. coord.
        k(    1) = (   0.0000000   0.0000000   0.0000000), wk =   0.1000000
        k(    2) = (   0.0000000   0.0000000   0.0500000), wk =   0.1000000
        k(    3) = (   0.0000000   0.0000000   0.1000000), wk =   0.1000000
        k(    4) = (   0.0000000   0.0000000   0.1500000), wk =   0.1000000
        k(    5) = (   0.0000000   0.0000000   0.2000000), wk =   0.1000000
        k(    6) = (   0.0000000   0.0000000   0.2500000), wk =   0.1000000
        k(    7) = (   0.0000000   0.0000000   0.3000000), wk =   0.1000000
        k(    8) = (   0.0000000   0.0000000   0.3500000), wk =   0.1000000
        k(    9) = (   0.0000000   0.0000000   0.4000000), wk =   0.1000000
        k(   10) = (   0.0000000   0.0000000   0.4500000), wk =   0.1000000
        k(   11) = (   0.0000000   0.0000000   0.5000000), wk =   0.1000000
        k(   12) = (   0.0000000   0.0000000   0.5500000), wk =   0.1000000
        k(   13) = (   0.0000000   0.0000000   0.6000000), wk =   0.1000000
        k(   14) = (   0.0000000   0.0000000   0.6500000), wk =   0.1000000
        k(   15) = (   0.0000000   0.0000000   0.7000000), wk =   0.1000000
        k(   16) = (   0.0000000   0.0000000   0.7500000), wk =   0.1000000
        k(   17) = (   0.0000000   0.0000000   0.8000000), wk =   0.1000000
        k(   18) = (   0.0000000   0.0000000   0.8500000), wk =   0.1000000
        k(   19) = (   0.0000000   0.0000000   0.9000000), wk =   0.1000000
        k(   20) = (   0.0000000   0.0000000   0.9500000), wk =   0.1000000

     Dense  grid:  1307799 G-vectors     FFT dimensions: ( 270, 270,  36)

     Smooth grid:   330385 G-vectors     FFT dimensions: ( 180, 180,  24)

     Dynamical RAM for                 wfc:       0.72 MB

     Dynamical RAM for     wfc (w. buffer):       0.72 MB

     Dynamical RAM for           str. fact:       2.85 MB

     Dynamical RAM for           local pot:       0.00 MB

     Dynamical RAM for          nlocal pot:       1.44 MB

     Dynamical RAM for                qrad:       0.51 MB

     Dynamical RAM for          rho,v,vnew:      18.56 MB

     Dynamical RAM for           G-vectors:      11.05 MB

     Dynamical RAM for          h,s,v(r/c):       0.00 MB

     Dynamical RAM for          <psi|beta>:       0.00 MB

     Dynamical RAM for                 psi:       1.44 MB

     Dynamical RAM for                hpsi:       1.44 MB

     Dynamical RAM for                spsi:       1.44 MB

     Dynamical RAM for      wfcinit/wfcrot:       1.44 MB

     Dynamical RAM for           addusdens:      34.21 MB

     Estimated static dynamical RAM per process >      57.53 MB

     Estimated max dynamical RAM per process >      91.74 MB

     Estimated total dynamical RAM >       2.51 GB

     The potential is recalculated from file :
     ./outdir/carbyne.save/charge-density


     negative rho (up, down):  5.469E-04 0.000E+00
     Starting wfcs are    8 randomized atomic wfcs
     Checking if some PAW data can be deallocated... 

     Band Structure Calculation
     Davidson diagonalization with overlap

     Computing kpt #:     1  of     5 on this pool
     total cpu time spent up to now is        5.3 secs

     Computing kpt #:     2  of     5 on this pool
     total cpu time spent up to now is        8.1 secs

     Computing kpt #:     3  of     5 on this pool
     total cpu time spent up to now is       10.9 secs

     Computing kpt #:     4  of     5 on this pool
     total cpu time spent up to now is       13.8 secs

     Computing kpt #:     5  of     5 on this pool
     total cpu time spent up to now is       16.7 secs

     ethr =  1.25E-11,  avg # of iterations = 83.8

     total cpu time spent up to now is       16.7 secs

     End of band structure calculation

          k = 0.0000 0.0000 0.0000 ( 41563 PWs)   bands (ev):

   -21.2595 -14.0554 -10.3185 -10.3185  -0.5158   0.0857   0.1863   0.1863

     occupation numbers 
     1.0000   1.0000   1.0000   1.0000   0.0000   0.0000   0.0000   0.0000

          k = 0.0000 0.0000 0.3897 ( 41519 PWs)   bands (ev):

   -21.2273 -14.1234 -10.2646 -10.2646  -0.4612   0.1424   0.2433   0.2433

     occupation numbers 
     1.0000   1.0000   1.0000   1.0000   0.0000   0.0000   0.0000   0.0000

          k = 0.0000 0.0000 0.7794 ( 41483 PWs)   bands (ev):

   -21.1307 -14.3219 -10.1030 -10.1030  -0.2976   0.3126   0.4144   0.4144

     occupation numbers 
     1.0000   1.0000   1.0000   1.0000   0.0000   0.0000   0.0000   0.0000

          k = 0.0000 0.0000 1.1691 ( 41499 PWs)   bands (ev):

   -20.9708 -14.6360  -9.8340  -9.8340  -0.0253   0.5963   0.6994   0.6994

     occupation numbers 
     1.0000   1.0000   1.0000   1.0000   0.0000   0.0000   0.0000   0.0000

          k = 0.0000 0.0000 1.5589 ( 41455 PWs)   bands (ev):

   -20.7490 -15.0448  -9.4580  -9.4580   0.3545   0.9934   1.0983   1.0983

     occupation numbers 
     1.0000   1.0000   1.0000   1.0000   0.0000   0.0000   0.0000   0.0000

          k = 0.0000 0.0000 1.9486 ( 41391 PWs)   bands (ev):

   -20.4677 -15.5249  -8.9758  -8.9758   0.8405   1.1923   1.1923   1.5038

     occupation numbers 
     1.0000   1.0000   1.0000   1.0000   0.0000   0.0000   0.0000   0.0000

          k = 0.0000 0.0000 2.3383 ( 41355 PWs)   bands (ev):

   -20.1299 -16.0534  -8.3885  -8.3885  -0.1626  -0.1626   1.4298   2.1275

     occupation numbers 
     1.0000   1.0000   1.0000   1.0000   0.0000   0.0000   0.0000   0.0000

          k = 0.0000 0.0000 2.7280 ( 41327 PWs)   bands (ev):

   -19.7395 -16.6094  -7.6978  -7.6978  -1.4758  -1.4758   2.1180   2.8643

     occupation numbers 
     1.0000   1.0000   1.0000   1.0000   0.0000   0.0000   0.0000   0.0000

          k = 0.0000 0.0000 3.1177 ( 41207 PWs)   bands (ev):

   -19.3019 -17.1745  -6.9072  -6.9072  -2.7223  -2.7223   2.8966   3.7139

     occupation numbers 
     1.0000   1.0000   1.0000   1.0000   0.0000   0.0000   0.0000   0.0000

          k = 0.0000 0.0000 3.5074 ( 41035 PWs)   bands (ev):

   -18.8269 -17.7296  -6.0266  -6.0266  -3.8804  -3.8804   3.7481   4.6755

     occupation numbers 
     1.0000   1.0000   1.0000   1.0000   0.0000   0.0000   0.0000   0.0000

          k = 0.0000 0.0000 3.8971 ( 41050 PWs)   bands (ev):

   -18.4245 -18.1593  -5.2621  -5.2621  -4.7380  -4.7380   4.5568   4.7319

     occupation numbers 
     1.0000   1.0000   1.0000   1.0000   0.0000   0.0000   0.0000   0.0000

          k = 0.0000 0.0000 4.2869 ( 41035 PWs)   bands (ev):

   -18.8269 -17.7296  -6.0266  -6.0266  -3.8804  -3.8804   3.7481   4.6755

     occupation numbers 
     1.0000   1.0000   1.0000   1.0000   0.0000   0.0000   0.0000   0.0000

          k = 0.0000 0.0000 4.6766 ( 41207 PWs)   bands (ev):

   -19.3019 -17.1745  -6.9072  -6.9072  -2.7223  -2.7223   2.8966   3.7139

     occupation numbers 
     1.0000   1.0000   1.0000   1.0000   0.0000   0.0000   0.0000   0.0000

          k = 0.0000 0.0000 5.0663 ( 41327 PWs)   bands (ev):

   -19.7395 -16.6094  -7.6978  -7.6978  -1.4758  -1.4758   2.1180   2.8643

     occupation numbers 
     1.0000   1.0000   1.0000   1.0000   0.0000   0.0000   0.0000   0.0000

          k = 0.0000 0.0000 5.4560 ( 41355 PWs)   bands (ev):

   -20.1299 -16.0534  -8.3885  -8.3885  -0.1626  -0.1626   1.4298   2.1275

     occupation numbers 
     1.0000   1.0000   1.0000   1.0000   0.0000   0.0000   0.0000   0.0000

          k = 0.0000 0.0000 5.8457 ( 41391 PWs)   bands (ev):

   -20.4677 -15.5249  -8.9758  -8.9758   0.8405   1.1923   1.1923   1.5038

     occupation numbers 
     1.0000   1.0000   1.0000   1.0000   0.0000   0.0000   0.0000   0.0000

          k = 0.0000 0.0000 6.2354 ( 41455 PWs)   bands (ev):

   -20.7490 -15.0448  -9.4580  -9.4580   0.3545   0.9934   1.0983   1.0983

     occupation numbers 
     1.0000   1.0000   1.0000   1.0000   0.0000   0.0000   0.0000   0.0000

          k = 0.0000 0.0000 6.6251 ( 41499 PWs)   bands (ev):

   -20.9708 -14.6360  -9.8340  -9.8340  -0.0253   0.5963   0.6994   0.6994

     occupation numbers 
     1.0000   1.0000   1.0000   1.0000   0.0000   0.0000   0.0000   0.0000

          k = 0.0000 0.0000 7.0148 ( 41483 PWs)   bands (ev):

   -21.1307 -14.3219 -10.1030 -10.1030  -0.2976   0.3126   0.4144   0.4144

     occupation numbers 
     1.0000   1.0000   1.0000   1.0000   0.0000   0.0000   0.0000   0.0000

          k = 0.0000 0.0000 7.4046 ( 41519 PWs)   bands (ev):

   -21.2273 -14.1234 -10.2646 -10.2646  -0.4612   0.1424   0.2433   0.2433

     occupation numbers 
     1.0000   1.0000   1.0000   1.0000   0.0000   0.0000   0.0000   0.0000

     highest occupied, lowest unoccupied level (ev):    -5.2621   -4.7380

     Writing output data file ./outdir/carbyne.save/
 
     init_run     :      3.27s CPU      2.05s WALL (       1 calls)
     electrons    :     28.38s CPU     14.37s WALL (       1 calls)

     Called by init_run:
     wfcinit      :      0.00s CPU      0.00s WALL (       1 calls)
     wfcinit:atom :      0.01s CPU      0.00s WALL (       5 calls)
     wfcinit:wfcr :      0.63s CPU      0.33s WALL (       5 calls)
     potinit      :      1.21s CPU      0.67s WALL (       1 calls)
     hinit0       :      1.17s CPU      0.68s WALL (       1 calls)

     Called by electrons:
     c_bands      :     28.38s CPU     14.37s WALL (       1 calls)
     v_of_rho     :      0.88s CPU      0.48s WALL (       1 calls)
     v_h          :      0.10s CPU      0.05s WALL (       1 calls)
     v_xc         :      0.79s CPU      0.43s WALL (       1 calls)
     newd         :      0.15s CPU      0.09s WALL (       1 calls)
     PAW_pot      :      0.06s CPU      0.04s WALL (       1 calls)

     Called by c_bands:
     init_us_2    :      0.01s CPU      0.00s WALL (       5 calls)
     cegterg      :     26.81s CPU     13.55s WALL (      23 calls)

     Called by sum_band:

     Called by *egterg:
     cdiaghg      :      0.75s CPU      0.39s WALL (     428 calls)
     cegterg:over :      0.86s CPU      0.44s WALL (     423 calls)
     cegterg:upda :      0.58s CPU      0.30s WALL (     423 calls)
     cegterg:last :      0.74s CPU      0.37s WALL (     227 calls)
     cdiaghg:chol :      0.11s CPU      0.06s WALL (     428 calls)
     cdiaghg:inve :      0.01s CPU      0.01s WALL (     428 calls)
     cdiaghg:para :      0.10s CPU      0.05s WALL (     856 calls)
     h_psi        :     23.98s CPU     12.10s WALL (     451 calls)
     s_psi        :      0.21s CPU      0.11s WALL (     451 calls)
     g_psi        :      0.08s CPU      0.04s WALL (     423 calls)

     Called by h_psi:
     h_psi:calbec :      0.48s CPU      0.24s WALL (     451 calls)
     vloc_psi     :     23.09s CPU     11.66s WALL (     451 calls)
     add_vuspsi   :      0.34s CPU      0.17s WALL (     451 calls)

     General routines
     calbec       :      0.48s CPU      0.23s WALL (     451 calls)
     fft          :      0.92s CPU      0.48s WALL (      13 calls)
     ffts         :      0.01s CPU      0.01s WALL (       1 calls)
     fftw         :     20.27s CPU     10.24s WALL (    3678 calls)
     interpolate  :      0.09s CPU      0.05s WALL (       1 calls)
     davcio       :      0.01s CPU      0.01s WALL (      10 calls)
 
     Parallel routines
     fft_scatt_xy :      3.12s CPU      1.57s WALL (    3692 calls)
     fft_scatt_yz :      7.41s CPU      3.75s WALL (    3692 calls)

     PAW routines
     PAW_pot      :      0.06s CPU      0.04s WALL (       1 calls)
 
     PWSCF        :     32.01s CPU     16.99s WALL

 
   This run was terminated on:   9: 8:36  20Jun2021            

=------------------------------------------------------------------------------=
   JOB DONE.
=------------------------------------------------------------------------------=
