
     Program PWSCF v.6.7MaX starts on 20Jun2021 at  9: 7:55 

     This program is part of the open-source Quantum ESPRESSO suite
     for quantum simulation of materials; please cite
         "P. Giannozzi et al., J. Phys.:Condens. Matter 21 395502 (2009);
         "P. Giannozzi et al., J. Phys.:Condens. Matter 29 465901 (2017);
          URL http://www.quantum-espresso.org", 
     in publications or presentations arising from this work. More details at
     http://www.quantum-espresso.org/quote

     Parallel version (MPI & OpenMP), running on      56 processor cores
     Number of MPI processes:                28
     Threads/MPI process:                     2

     MPI processes distributed on     1 nodes
     K-points division:     npool     =       4
     R & G space division:  proc/nbgrp/npool/nimage =       7
     Waiting for input...
     Reading input from standard input

     Current dimensions of program PWSCF are:
     Max number of different atomic species (ntypx) = 10
     Max number of k-points (npk) =  40000
     Max angular momentum in pseudopotentials (lmaxx) =  3
     file C.pbe-n-kjpaw_psl.1.0.0.UPF: wavefunction(s)  2S 2P renormalized

     Subspace diagonalization in iterative solution of the eigenvalue problem:
     one sub-group per band group will be used
     scalapack distributed-memory algorithm (size of sub-group:  2*  2 procs)

     Message from routine setup:
     using ibrav=0 with symmetry is DISCOURAGED, use correct ibrav instead
 
     Parallelization info
     --------------------
     sticks:   dense  smooth     PW     G-vecs:    dense   smooth      PW
     Min        8121    3246    967               186828    47197    7639
     Max        8123    3248    969               186829    47198    7640
     Sum       56853   22733   6777              1307799   330385   53475
 


     bravais-lattice index     =            0
     lattice parameter (alat)  =      37.7945  a.u.
     unit-cell volume          =    6926.4511 (a.u.)^3
     number of atoms/cell      =            2
     number of atomic types    =            1
     number of electrons       =         8.00
     number of Kohn-Sham states=            8
     kinetic-energy cutoff     =      50.0000  Ry
     charge density cutoff     =     500.0000  Ry
     scf convergence threshold =      1.0E-09
     mixing beta               =       0.7000
     number of iterations used =            8  plain     mixing
     Exchange-correlation= SLA  PW   PBX  PBC
                           (   1   4   3   4   0   0   0)

     celldm(1)=  37.794522  celldm(2)=   0.000000  celldm(3)=   0.000000
     celldm(4)=   0.000000  celldm(5)=   0.000000  celldm(6)=   0.000000

     crystal axes: (cart. coord. in units of alat)
               a(1) = (   1.000000   0.000000   0.000000 )  
               a(2) = (   0.000000   1.000000   0.000000 )  
               a(3) = (   0.000000   0.000000   0.128299 )  

     reciprocal axes: (cart. coord. in units 2 pi/alat)
               b(1) = (  1.000000  0.000000  0.000000 )  
               b(2) = (  0.000000  1.000000  0.000000 )  
               b(3) = (  0.000000  0.000000  7.794277 )  


     PseudoPot. # 1 for C  read from file:
     ./pseudo/C.pbe-n-kjpaw_psl.1.0.0.UPF
     MD5 check sum: 6fec8efd722f5d988670a8dc528584a2
     Pseudo is Projector augmented-wave + core cor, Zval =  4.0
     Generated using "atomic" code by A. Dal Corso  v.5.1.2
     Shape of augmentation charge: PSQ
     Using radial grid of 1073 points,  4 beta functions with: 
                l(1) =   0
                l(2) =   0
                l(3) =   1
                l(4) =   1
     Q(r) pseudized with 0 coefficients 


     atomic species   valence    mass     pseudopotential
        C              4.00    12.01070     C ( 1.00)

      8 Sym. Ops. (no inversion) found


                                    s                        frac. trans.

      isym =  1     identity                                     

 cryst.   s( 1) = (     1          0          0      )
                  (     0          1          0      )
                  (     0          0          1      )

 cart.    s( 1) = (  1.0000000  0.0000000  0.0000000 )
                  (  0.0000000  1.0000000  0.0000000 )
                  (  0.0000000  0.0000000  1.0000000 )


      isym =  2     180 deg rotation - cart. axis [0,0,1]        

 cryst.   s( 2) = (    -1          0          0      )
                  (     0         -1          0      )
                  (     0          0          1      )

 cart.    s( 2) = ( -1.0000000  0.0000000  0.0000000 )
                  (  0.0000000 -1.0000000  0.0000000 )
                  (  0.0000000  0.0000000  1.0000000 )


      isym =  3      90 deg rotation - cart. axis [0,0,-1]       

 cryst.   s( 3) = (     0         -1          0      )
                  (     1          0          0      )
                  (     0          0          1      )

 cart.    s( 3) = (  0.0000000  1.0000000  0.0000000 )
                  ( -1.0000000  0.0000000  0.0000000 )
                  (  0.0000000  0.0000000  1.0000000 )


      isym =  4      90 deg rotation - cart. axis [0,0,1]        

 cryst.   s( 4) = (     0          1          0      )
                  (    -1          0          0      )
                  (     0          0          1      )

 cart.    s( 4) = (  0.0000000 -1.0000000  0.0000000 )
                  (  1.0000000  0.0000000  0.0000000 )
                  (  0.0000000  0.0000000  1.0000000 )


      isym =  5     inv. 180 deg rotation - cart. axis [0,1,0]   

 cryst.   s( 5) = (     1          0          0      )
                  (     0         -1          0      )
                  (     0          0          1      )

 cart.    s( 5) = (  1.0000000  0.0000000  0.0000000 )
                  (  0.0000000 -1.0000000  0.0000000 )
                  (  0.0000000  0.0000000  1.0000000 )


      isym =  6     inv. 180 deg rotation - cart. axis [1,0,0]   

 cryst.   s( 6) = (    -1          0          0      )
                  (     0          1          0      )
                  (     0          0          1      )

 cart.    s( 6) = ( -1.0000000  0.0000000  0.0000000 )
                  (  0.0000000  1.0000000  0.0000000 )
                  (  0.0000000  0.0000000  1.0000000 )


      isym =  7     inv. 180 deg rotation - cart. axis [1,1,0]   

 cryst.   s( 7) = (     0         -1          0      )
                  (    -1          0          0      )
                  (     0          0          1      )

 cart.    s( 7) = (  0.0000000 -1.0000000  0.0000000 )
                  ( -1.0000000  0.0000000  0.0000000 )
                  (  0.0000000  0.0000000  1.0000000 )


      isym =  8     inv. 180 deg rotation - cart. axis [1,-1,0]  

 cryst.   s( 8) = (     0          1          0      )
                  (     1          0          0      )
                  (     0          0          1      )

 cart.    s( 8) = (  0.0000000  1.0000000  0.0000000 )
                  (  1.0000000  0.0000000  0.0000000 )
                  (  0.0000000  0.0000000  1.0000000 )


   Cartesian axes

     site n.     atom                  positions (alat units)
         1           C   tau(   1) = (   0.5000000   0.5000000  -0.0000988  )
         2           C   tau(   2) = (   0.5000000   0.5000000   0.0625851  )

   Crystallographic axes

     site n.     atom                  positions (cryst. coord.)
         1           C   tau(   1) = (  0.5000000  0.5000000 -0.0007699  )
         2           C   tau(   2) = (  0.5000000  0.5000000  0.4878054  )

     number of k points=    11
                       cart. coord. in units 2pi/alat
        k(    1) = (   0.0000000   0.0000000   0.0000000), wk =   0.1000000
        k(    2) = (   0.0000000   0.0000000   0.3897138), wk =   0.2000000
        k(    3) = (   0.0000000   0.0000000   0.7794277), wk =   0.2000000
        k(    4) = (   0.0000000   0.0000000   1.1691415), wk =   0.2000000
        k(    5) = (   0.0000000   0.0000000   1.5588553), wk =   0.2000000
        k(    6) = (   0.0000000   0.0000000   1.9485691), wk =   0.2000000
        k(    7) = (   0.0000000   0.0000000   2.3382830), wk =   0.2000000
        k(    8) = (   0.0000000   0.0000000   2.7279968), wk =   0.2000000
        k(    9) = (   0.0000000   0.0000000   3.1177106), wk =   0.2000000
        k(   10) = (   0.0000000   0.0000000   3.5074245), wk =   0.2000000
        k(   11) = (   0.0000000   0.0000000  -3.8971383), wk =   0.1000000

                       cryst. coord.
        k(    1) = (   0.0000000   0.0000000   0.0000000), wk =   0.1000000
        k(    2) = (   0.0000000   0.0000000   0.0500000), wk =   0.2000000
        k(    3) = (   0.0000000   0.0000000   0.1000000), wk =   0.2000000
        k(    4) = (   0.0000000   0.0000000   0.1500000), wk =   0.2000000
        k(    5) = (   0.0000000   0.0000000   0.2000000), wk =   0.2000000
        k(    6) = (   0.0000000   0.0000000   0.2500000), wk =   0.2000000
        k(    7) = (   0.0000000   0.0000000   0.3000000), wk =   0.2000000
        k(    8) = (   0.0000000   0.0000000   0.3500000), wk =   0.2000000
        k(    9) = (   0.0000000   0.0000000   0.4000000), wk =   0.2000000
        k(   10) = (   0.0000000   0.0000000   0.4500000), wk =   0.2000000
        k(   11) = (   0.0000000   0.0000000  -0.5000000), wk =   0.1000000

     Dense  grid:  1307799 G-vectors     FFT dimensions: ( 270, 270,  36)

     Smooth grid:   330385 G-vectors     FFT dimensions: ( 180, 180,  24)

     Dynamical RAM for                 wfc:       0.72 MB

     Dynamical RAM for     wfc (w. buffer):       2.88 MB

     Dynamical RAM for           str. fact:       2.85 MB

     Dynamical RAM for           local pot:       0.00 MB

     Dynamical RAM for          nlocal pot:       1.44 MB

     Dynamical RAM for                qrad:       0.51 MB

     Dynamical RAM for          rho,v,vnew:      18.56 MB

     Dynamical RAM for               rhoin:       6.19 MB

     Dynamical RAM for            rho*nmix:      45.61 MB

     Dynamical RAM for           G-vectors:      11.05 MB

     Dynamical RAM for          h,s,v(r/c):       0.00 MB

     Dynamical RAM for          <psi|beta>:       0.00 MB

     Dynamical RAM for                 psi:       1.44 MB

     Dynamical RAM for                hpsi:       1.44 MB

     Dynamical RAM for                spsi:       1.44 MB

     Dynamical RAM for      wfcinit/wfcrot:       1.44 MB

     Dynamical RAM for           addusdens:      34.21 MB

     Dynamical RAM for          addusforce:      34.92 MB

     Dynamical RAM for         addusstress:      36.70 MB

     Estimated static dynamical RAM per process >     111.49 MB

     Estimated max dynamical RAM per process >     148.20 MB

     Estimated total dynamical RAM >       4.05 GB

     Initial potential from superposition of free atoms

     starting charge    7.99992, renormalised to    8.00000

     negative rho (up, down):  3.998E-04 0.000E+00
     Starting wfcs are    8 randomized atomic wfcs
     Checking if some PAW data can be deallocated... 

     total cpu time spent up to now is        4.6 secs

     Self-consistent Calculation

     iteration #  1     ecut=    50.00 Ry     beta= 0.70
     Davidson diagonalization with overlap
     ethr =  1.00E-02,  avg # of iterations =  4.5

     negative rho (up, down):  5.040E-04 0.000E+00

     total cpu time spent up to now is        6.4 secs

     total energy              =     -36.69362969 Ry
     estimated scf accuracy    <       0.26112090 Ry

     iteration #  2     ecut=    50.00 Ry     beta= 0.70
     Davidson diagonalization with overlap
     ethr =  3.26E-03,  avg # of iterations =  2.0

     negative rho (up, down):  5.277E-04 0.000E+00

     total cpu time spent up to now is        7.8 secs

     total energy              =     -36.74254849 Ry
     estimated scf accuracy    <       0.00595698 Ry

     iteration #  3     ecut=    50.00 Ry     beta= 0.70
     Davidson diagonalization with overlap
     c_bands:  1 eigenvalues not converged
     ethr =  7.45E-05,  avg # of iterations = 15.5

     negative rho (up, down):  5.432E-04 0.000E+00

     total cpu time spent up to now is       10.4 secs

     total energy              =     -36.74324065 Ry
     estimated scf accuracy    <       0.00022558 Ry

     iteration #  4     ecut=    50.00 Ry     beta= 0.70
     Davidson diagonalization with overlap
     ethr =  2.82E-06,  avg # of iterations = 12.5

     negative rho (up, down):  5.453E-04 0.000E+00

     total cpu time spent up to now is       12.4 secs

     total energy              =     -36.74323303 Ry
     estimated scf accuracy    <       0.00025551 Ry

     iteration #  5     ecut=    50.00 Ry     beta= 0.70
     Davidson diagonalization with overlap
     ethr =  2.82E-06,  avg # of iterations =  2.3

     negative rho (up, down):  5.465E-04 0.000E+00

     total cpu time spent up to now is       13.9 secs

     total energy              =     -36.74327052 Ry
     estimated scf accuracy    <       0.00000057 Ry

     iteration #  6     ecut=    50.00 Ry     beta= 0.70
     Davidson diagonalization with overlap
     ethr =  7.11E-09,  avg # of iterations =  3.5

     negative rho (up, down):  5.468E-04 0.000E+00

     total cpu time spent up to now is       15.4 secs

     total energy              =     -36.74327162 Ry
     estimated scf accuracy    <       0.00000038 Ry

     iteration #  7     ecut=    50.00 Ry     beta= 0.70
     Davidson diagonalization with overlap
     ethr =  4.76E-09,  avg # of iterations =  1.0

     negative rho (up, down):  5.469E-04 0.000E+00

     total cpu time spent up to now is       16.7 secs

     total energy              =     -36.74327169 Ry
     estimated scf accuracy    <          5.1E-09 Ry

     iteration #  8     ecut=    50.00 Ry     beta= 0.70
     Davidson diagonalization with overlap
     ethr =  6.33E-11,  avg # of iterations =  2.9

     negative rho (up, down):  5.469E-04 0.000E+00

     total cpu time spent up to now is       18.3 secs

     total energy              =     -36.74327169 Ry
     estimated scf accuracy    <          2.0E-09 Ry

     iteration #  9     ecut=    50.00 Ry     beta= 0.70
     Davidson diagonalization with overlap
     ethr =  2.45E-11,  avg # of iterations =  1.0

     negative rho (up, down):  5.469E-04 0.000E+00

     total cpu time spent up to now is       19.5 secs

     End of self-consistent calculation

          k = 0.0000 0.0000 0.0000 ( 41563 PWs)   bands (ev):

   -21.2595 -14.0554 -10.3185 -10.3185  -0.5158   0.0857   0.1866   0.1872

     occupation numbers 
     1.0000   1.0000   1.0000   1.0000   0.0000   0.0000   0.0000   0.0000

          k = 0.0000 0.0000 0.3897 ( 41519 PWs)   bands (ev):

   -21.2273 -14.1234 -10.2646 -10.2646  -0.4612   0.1425   0.2438   0.2442

     occupation numbers 
     1.0000   1.0000   1.0000   1.0000   0.0000   0.0000   0.0000   0.0000

          k = 0.0000 0.0000 0.7794 ( 41483 PWs)   bands (ev):

   -21.1307 -14.3219 -10.1030 -10.1030  -0.2975   0.3129   0.4146   0.4157

     occupation numbers 
     1.0000   1.0000   1.0000   1.0000   0.0000   0.0000   0.0000   0.0000

          k = 0.0000 0.0000 1.1691 ( 41499 PWs)   bands (ev):

   -20.9708 -14.6360  -9.8340  -9.8340  -0.0253   0.5968   0.6998   0.7001

     occupation numbers 
     1.0000   1.0000   1.0000   1.0000   0.0000   0.0000   0.0000   0.0000

          k = 0.0000 0.0000 1.5589 ( 41455 PWs)   bands (ev):

   -20.7490 -15.0448  -9.4580  -9.4580   0.3545   0.9935   1.0984   1.0986

     occupation numbers 
     1.0000   1.0000   1.0000   1.0000   0.0000   0.0000   0.0000   0.0000

          k = 0.0000 0.0000 1.9486 ( 41391 PWs)   bands (ev):

   -20.4677 -15.5249  -8.9758  -8.9758   0.8405   1.1924   1.1929   1.5045

     occupation numbers 
     1.0000   1.0000   1.0000   1.0000   0.0000   0.0000   0.0000   0.0000

          k = 0.0000 0.0000 2.3383 ( 41355 PWs)   bands (ev):

   -20.1299 -16.0534  -8.3885  -8.3885  -0.1626  -0.1626   1.4298   2.1281

     occupation numbers 
     1.0000   1.0000   1.0000   1.0000   0.0000   0.0000   0.0000   0.0000

          k = 0.0000 0.0000 2.7280 ( 41327 PWs)   bands (ev):

   -19.7395 -16.6094  -7.6978  -7.6978  -1.4758  -1.4758   2.1180   2.8657

     occupation numbers 
     1.0000   1.0000   1.0000   1.0000   0.0000   0.0000   0.0000   0.0000

          k = 0.0000 0.0000 3.1177 ( 41207 PWs)   bands (ev):

   -19.3019 -17.1744  -6.9072  -6.9072  -2.7223  -2.7223   2.8966   3.7143

     occupation numbers 
     1.0000   1.0000   1.0000   1.0000   0.0000   0.0000   0.0000   0.0000

          k = 0.0000 0.0000 3.5074 ( 41035 PWs)   bands (ev):

   -18.8269 -17.7296  -6.0266  -6.0266  -3.8804  -3.8804   3.7481   4.6757

     occupation numbers 
     1.0000   1.0000   1.0000   1.0000   0.0000   0.0000   0.0000   0.0000

          k = 0.0000 0.0000-3.8971 ( 41050 PWs)   bands (ev):

   -18.4245 -18.1593  -5.2621  -5.2621  -4.7380  -4.7380   4.5568   4.7320

     occupation numbers 
     1.0000   1.0000   1.0000   1.0000   0.0000   0.0000   0.0000   0.0000

     highest occupied, lowest unoccupied level (ev):    -5.2621   -4.7380

!    total energy              =     -36.74327169 Ry

     total all-electron energy =      -152.271467 Ry
     estimated scf accuracy    <          3.2E-11 Ry

     The total energy is the sum of the following terms:
     one-electron contribution =    -101.92455847 Ry
     hartree contribution      =      51.75151789 Ry
     xc contribution           =      -9.08980173 Ry
     ewald contribution        =      34.86064324 Ry
     one-center paw contrib.   =     -12.34107261 Ry
      -> PAW hartree energy AE =       9.69145369 Ry
      -> PAW hartree energy PS =      -9.68245880 Ry
      -> PAW xc energy AE      =     -10.72884604 Ry
      -> PAW xc energy PS      =       4.54931536 Ry
      -> total E_H with PAW    =      51.76051278 Ry
      -> total E_XC with PAW   =     -15.26933241 Ry

     convergence has been achieved in   9 iterations

     negative rho (up, down):  5.469E-04 0.000E+00

     Forces acting on atoms (cartesian axes, Ry/au):

     atom    1 type  1   force =     0.00000000    0.00000000   -0.00015397
     atom    2 type  1   force =     0.00000000    0.00000000    0.00015397
     The non-local contrib.  to forces
     atom    1 type  1   force =     0.00000000    0.00000000   -0.11708214
     atom    2 type  1   force =     0.00000000    0.00000000    0.11709019
     The ionic contribution  to forces
     atom    1 type  1   force =     0.00000000    0.00000000   -0.52384759
     atom    2 type  1   force =    -0.00000000   -0.00000000    0.52384759
     The local contribution  to forces
     atom    1 type  1   force =     0.00000000    0.00000000    0.63566081
     atom    2 type  1   force =     0.00000000    0.00000000   -0.63566989
     The core correction contribution to forces
     atom    1 type  1   force =    -0.00000000   -0.00000000    0.00514218
     atom    2 type  1   force =    -0.00000000   -0.00000000   -0.00508575
     The Hubbard contrib.    to forces
     atom    1 type  1   force =     0.00000000    0.00000000    0.00000000
     atom    2 type  1   force =     0.00000000    0.00000000    0.00000000
     The SCF correction term to forces
     atom    1 type  1   force =    -0.00000000    0.00000000    0.00000020
     atom    2 type  1   force =    -0.00000000    0.00000000   -0.00000075

     Total force =     0.000218     Total SCF correction =     0.000001


     Computing stress (Cartesian axis) and pressure


     negative rho (up, down):  5.469E-04 0.000E+00
          total   stress  (Ry/bohr**3)                   (kbar)     P=        0.08
  -0.00000012   0.00000000   0.00000000           -0.02        0.00        0.00
   0.00000000  -0.00000012   0.00000000            0.00       -0.02        0.00
   0.00000000   0.00000000   0.00000178            0.00        0.00        0.26

     kinetic stress (kbar)    226.92      0.00      0.00
                                0.00    226.92      0.00
                                0.00      0.00    156.17

     local   stress (kbar)     58.29     -0.00      0.00
                               -0.00     58.29      0.00
                                0.00      0.00  -2563.98

     nonloc. stress (kbar)     46.43      0.00      0.00
                                0.00     46.43      0.00
                                0.00      0.00     58.15

     hartree stress (kbar)      0.26     -0.00      0.00
                               -0.00      0.26      0.00
                                0.00      0.00   1098.59

     exc-cor stress (kbar)     -4.23     -0.00      0.00
                               -0.00     -4.23      0.00
                                0.00      0.00     -1.06

     corecor stress (kbar)    -47.37     -0.00     -0.00
                               -0.00    -47.37     -0.00
                               -0.00     -0.00    -48.62

     ewald   stress (kbar)   -280.31      0.00      0.00
                                0.00   -280.31      0.00
                                0.00      0.00   1301.00

     hubbard stress (kbar)      0.00      0.00      0.00
                                0.00      0.00      0.00
                                0.00      0.00      0.00

     DFT-D   stress (kbar)      0.00      0.00      0.00
                                0.00      0.00      0.00
                                0.00      0.00      0.00

     XDM     stress (kbar)      0.00      0.00      0.00
                                0.00      0.00      0.00
                                0.00      0.00      0.00

     dft-nl  stress (kbar)      0.00      0.00      0.00
                                0.00      0.00      0.00
                                0.00      0.00      0.00

     TS-vdW  stress (kbar)      0.00      0.00      0.00
                                0.00      0.00      0.00
                                0.00      0.00      0.00



     Writing output data file ./outdir/carbyne.save/
 
     init_run     :      4.85s CPU      3.63s WALL (       1 calls)
     electrons    :     29.01s CPU     15.04s WALL (       1 calls)
     forces       :      2.35s CPU      1.21s WALL (       1 calls)
     stress       :      3.95s CPU      2.01s WALL (       1 calls)

     Called by init_run:
     wfcinit      :      0.79s CPU      0.84s WALL (       1 calls)
     wfcinit:atom :      0.01s CPU      0.01s WALL (       3 calls)
     wfcinit:wfcr :      0.75s CPU      0.82s WALL (       3 calls)
     potinit      :      1.72s CPU      0.99s WALL (       1 calls)
     hinit0       :      1.43s CPU      1.01s WALL (       1 calls)

     Called by electrons:
     c_bands      :     12.43s CPU      6.36s WALL (       9 calls)
     sum_band     :      4.35s CPU      2.29s WALL (       9 calls)
     v_of_rho     :      8.71s CPU      4.49s WALL (      10 calls)
     v_h          :      0.92s CPU      0.47s WALL (      10 calls)
     v_xc         :      9.36s CPU      4.82s WALL (      12 calls)
     newd         :      1.40s CPU      0.78s WALL (      10 calls)
     PAW_pot      :      0.29s CPU      0.20s WALL (      10 calls)
     mix_rho      :      1.70s CPU      0.91s WALL (       9 calls)

     Called by c_bands:
     init_us_2    :      0.10s CPU      0.05s WALL (      63 calls)
     cegterg      :     11.62s CPU      5.95s WALL (      27 calls)

     Called by sum_band:
     sum_band:wei :      0.01s CPU      0.00s WALL (       9 calls)
     sum_band:loo :      1.92s CPU      0.98s WALL (       9 calls)
     sum_band:buf :      0.02s CPU      0.01s WALL (      27 calls)
     sum_band:ini :      0.05s CPU      0.02s WALL (      27 calls)
     sum_band:cal :      0.02s CPU      0.01s WALL (      27 calls)
     sum_band:bec :      0.01s CPU      0.01s WALL (      27 calls)
     addusdens    :      0.92s CPU      0.53s WALL (       9 calls)
     addusd:skk   :      0.01s CPU      0.01s WALL (       9 calls)
     addusd:dgemm :      0.29s CPU      0.20s WALL (       9 calls)
     addusd:qvan2 :      0.35s CPU      0.18s WALL (       9 calls)

     Called by *egterg:
     cdiaghg      :      0.59s CPU      0.68s WALL (     175 calls)
     cegterg:over :      0.29s CPU      0.15s WALL (     148 calls)
     cegterg:upda :      0.23s CPU      0.13s WALL (     148 calls)
     cegterg:last :      0.24s CPU      0.12s WALL (      84 calls)
     cdiaghg:chol :      0.17s CPU      0.13s WALL (     175 calls)
     cdiaghg:inve :      0.01s CPU      0.01s WALL (     175 calls)
     cdiaghg:para :      0.05s CPU      0.03s WALL (     350 calls)
     h_psi        :     10.74s CPU      5.52s WALL (     178 calls)
     s_psi        :      0.10s CPU      0.05s WALL (     178 calls)
     g_psi        :      0.03s CPU      0.02s WALL (     148 calls)

     Called by h_psi:
     h_psi:calbec :      0.26s CPU      0.16s WALL (     178 calls)
     vloc_psi     :     10.28s CPU      5.25s WALL (     178 calls)
     add_vuspsi   :      0.17s CPU      0.09s WALL (     178 calls)

     General routines
     calbec       :      0.29s CPU      0.18s WALL (     220 calls)
     fft          :     11.02s CPU      5.80s WALL (     153 calls)
     ffts         :      0.31s CPU      0.18s WALL (      19 calls)
     fftw         :     10.28s CPU      5.26s WALL (    1810 calls)
     interpolate  :      0.93s CPU      0.48s WALL (      10 calls)
 
     Parallel routines
     fft_scatt_xy :      3.18s CPU      1.62s WALL (    1982 calls)
     fft_scatt_yz :      8.83s CPU      4.46s WALL (    1982 calls)

     PAW routines
     PAW_pot      :      0.29s CPU      0.20s WALL (      10 calls)
     PAW_symme    :      0.01s CPU      0.01s WALL (      19 calls)
 
     PWSCF        :     40.57s CPU     23.17s WALL

 
   This run was terminated on:   9: 8:18  20Jun2021            

=------------------------------------------------------------------------------=
   JOB DONE.
=------------------------------------------------------------------------------=
