
     Program PWSCF v.6.7MaX starts on 24Jun2021 at 20:34:59 

     This program is part of the open-source Quantum ESPRESSO suite
     for quantum simulation of materials; please cite
         "P. Giannozzi et al., J. Phys.:Condens. Matter 21 395502 (2009);
         "P. Giannozzi et al., J. Phys.:Condens. Matter 29 465901 (2017);
          URL http://www.quantum-espresso.org", 
     in publications or presentations arising from this work. More details at
     http://www.quantum-espresso.org/quote

     Parallel version (MPI & OpenMP), running on      56 processor cores
     Number of MPI processes:                28
     Threads/MPI process:                     2

     MPI processes distributed on     1 nodes
     K-points division:     npool     =      28
     Waiting for input...
     Reading input from standard input

     Current dimensions of program PWSCF are:
     Max number of different atomic species (ntypx) = 10
     Max number of k-points (npk) =  40000
     Max angular momentum in pseudopotentials (lmaxx) =  3
     file C.pbe-n-kjpaw_psl.1.0.0.UPF: wavefunction(s)  2S 2P renormalized

     Subspace diagonalization in iterative solution of the eigenvalue problem:
     a serial algorithm will be used

     Message from routine setup:
     using ibrav=0 with symmetry is DISCOURAGED, use correct ibrav instead
 
     G-vector sticks info
     --------------------
     sticks:   dense  smooth     PW     G-vecs:    dense   smooth      PW
     Sum        2927    1445    425               233967    82581   13359
 


     bravais-lattice index     =            0
     lattice parameter (alat)  =       4.8482  a.u.
     unit-cell volume          =    1731.3136 (a.u.)^3
     number of atoms/cell      =            2
     number of atomic types    =            1
     number of electrons       =         8.00
     number of Kohn-Sham states=           16
     kinetic-energy cutoff     =      50.0000  Ry
     charge density cutoff     =     400.0000  Ry
     scf convergence threshold =      1.0E-08
     mixing beta               =       0.7000
     number of iterations used =            8  plain     mixing
     energy convergence thresh.=      1.0E-06
     force convergence thresh. =      1.0E-05
     Exchange-correlation= SLA  PW   PBX  PBC
                           (   1   4   3   4   0   0   0)
     nstep                     =           50


     celldm(1)=   4.848172  celldm(2)=   0.000000  celldm(3)=   0.000000
     celldm(4)=   0.000000  celldm(5)=   0.000000  celldm(6)=   0.000000

     crystal axes: (cart. coord. in units of alat)
               a(1) = (   1.000000   0.000000   0.000000 )  
               a(2) = (   0.000000   3.897812   0.000000 )  
               a(3) = (   0.000000   0.000000   3.897812 )  

     reciprocal axes: (cart. coord. in units 2 pi/alat)
               b(1) = (  1.000000  0.000000  0.000000 )  
               b(2) = (  0.000000  0.256554  0.000000 )  
               b(3) = (  0.000000  0.000000  0.256554 )  


     PseudoPot. # 1 for C  read from file:
     ./pseudo/C.pbe-n-kjpaw_psl.1.0.0.UPF
     MD5 check sum: 6fec8efd722f5d988670a8dc528584a2
     Pseudo is Projector augmented-wave + core cor, Zval =  4.0
     Generated using "atomic" code by A. Dal Corso  v.5.1.2
     Shape of augmentation charge: PSQ
     Using radial grid of 1073 points,  4 beta functions with: 
                l(1) =   0
                l(2) =   0
                l(3) =   1
                l(4) =   1
     Q(r) pseudized with 0 coefficients 


     atomic species   valence    mass     pseudopotential
        C              4.00    12.01070     C ( 1.00)

      8 Sym. Ops. (no inversion) found


                                    s                        frac. trans.

      isym =  1     identity                                     

 cryst.   s( 1) = (     1          0          0      )
                  (     0          1          0      )
                  (     0          0          1      )

 cart.    s( 1) = (  1.0000000  0.0000000  0.0000000 )
                  (  0.0000000  1.0000000  0.0000000 )
                  (  0.0000000  0.0000000  1.0000000 )


      isym =  2     180 deg rotation - cart. axis [1,0,0]        

 cryst.   s( 2) = (     1          0          0      )
                  (     0         -1          0      )
                  (     0          0         -1      )

 cart.    s( 2) = (  1.0000000  0.0000000  0.0000000 )
                  (  0.0000000 -1.0000000  0.0000000 )
                  (  0.0000000  0.0000000 -1.0000000 )


      isym =  3      90 deg rotation - cart. axis [-1,0,0]       

 cryst.   s( 3) = (     1          0          0      )
                  (     0          0         -1      )
                  (     0          1          0      )

 cart.    s( 3) = (  1.0000000  0.0000000  0.0000000 )
                  (  0.0000000  0.0000000  1.0000000 )
                  (  0.0000000 -1.0000000  0.0000000 )


      isym =  4      90 deg rotation - cart. axis [1,0,0]        

 cryst.   s( 4) = (     1          0          0      )
                  (     0          0          1      )
                  (     0         -1          0      )

 cart.    s( 4) = (  1.0000000  0.0000000  0.0000000 )
                  (  0.0000000  0.0000000 -1.0000000 )
                  (  0.0000000  1.0000000  0.0000000 )


      isym =  5     inv. 180 deg rotation - cart. axis [0,0,1]   

 cryst.   s( 5) = (     1          0          0      )
                  (     0          1          0      )
                  (     0          0         -1      )

 cart.    s( 5) = (  1.0000000  0.0000000  0.0000000 )
                  (  0.0000000  1.0000000  0.0000000 )
                  (  0.0000000  0.0000000 -1.0000000 )


      isym =  6     inv. 180 deg rotation - cart. axis [0,1,0]   

 cryst.   s( 6) = (     1          0          0      )
                  (     0         -1          0      )
                  (     0          0          1      )

 cart.    s( 6) = (  1.0000000  0.0000000  0.0000000 )
                  (  0.0000000 -1.0000000  0.0000000 )
                  (  0.0000000  0.0000000  1.0000000 )


      isym =  7     inv. 180 deg rotation - cart. axis [0,1,1]   

 cryst.   s( 7) = (     1          0          0      )
                  (     0          0         -1      )
                  (     0         -1          0      )

 cart.    s( 7) = (  1.0000000  0.0000000  0.0000000 )
                  (  0.0000000  0.0000000 -1.0000000 )
                  (  0.0000000 -1.0000000  0.0000000 )


      isym =  8     inv. 180 deg rotation - cart. axis [0,1,-1]  

 cryst.   s( 8) = (     1          0          0      )
                  (     0          0          1      )
                  (     0          1          0      )

 cart.    s( 8) = (  1.0000000  0.0000000  0.0000000 )
                  (  0.0000000  0.0000000  1.0000000 )
                  (  0.0000000  1.0000000  0.0000000 )


   Cartesian axes

     site n.     atom                  positions (alat units)
         1           C   tau(   1) = (   0.0001535   1.9489059   1.9489059  )
         2           C   tau(   2) = (   0.4928203   1.9489059   1.9489059  )

   Crystallographic axes

     site n.     atom                  positions (cryst. coord.)
         1           C   tau(   1) = (  0.0001535  0.5000000  0.5000000  )
         2           C   tau(   2) = (  0.4928203  0.5000000  0.5000000  )

     number of k points=    51
                       cart. coord. in units 2pi/alat
        k(    1) = (   0.0000000   0.0000000   0.0000000), wk =   0.0200000
        k(    2) = (   0.0100000   0.0000000   0.0000000), wk =   0.0400000
        k(    3) = (   0.0200000   0.0000000   0.0000000), wk =   0.0400000
        k(    4) = (   0.0300000   0.0000000   0.0000000), wk =   0.0400000
        k(    5) = (   0.0400000   0.0000000   0.0000000), wk =   0.0400000
        k(    6) = (   0.0500000   0.0000000   0.0000000), wk =   0.0400000
        k(    7) = (   0.0600000   0.0000000   0.0000000), wk =   0.0400000
        k(    8) = (   0.0700000   0.0000000   0.0000000), wk =   0.0400000
        k(    9) = (   0.0800000   0.0000000   0.0000000), wk =   0.0400000
        k(   10) = (   0.0900000   0.0000000   0.0000000), wk =   0.0400000
        k(   11) = (   0.1000000   0.0000000   0.0000000), wk =   0.0400000
        k(   12) = (   0.1100000   0.0000000   0.0000000), wk =   0.0400000
        k(   13) = (   0.1200000   0.0000000   0.0000000), wk =   0.0400000
        k(   14) = (   0.1300000   0.0000000   0.0000000), wk =   0.0400000
        k(   15) = (   0.1400000   0.0000000   0.0000000), wk =   0.0400000
        k(   16) = (   0.1500000   0.0000000   0.0000000), wk =   0.0400000
        k(   17) = (   0.1600000   0.0000000   0.0000000), wk =   0.0400000
        k(   18) = (   0.1700000   0.0000000   0.0000000), wk =   0.0400000
        k(   19) = (   0.1800000   0.0000000   0.0000000), wk =   0.0400000
        k(   20) = (   0.1900000   0.0000000   0.0000000), wk =   0.0400000
        k(   21) = (   0.2000000   0.0000000   0.0000000), wk =   0.0400000
        k(   22) = (   0.2100000   0.0000000   0.0000000), wk =   0.0400000
        k(   23) = (   0.2200000   0.0000000   0.0000000), wk =   0.0400000
        k(   24) = (   0.2300000   0.0000000   0.0000000), wk =   0.0400000
        k(   25) = (   0.2400000   0.0000000   0.0000000), wk =   0.0400000
        k(   26) = (   0.2500000   0.0000000   0.0000000), wk =   0.0400000
        k(   27) = (   0.2600000   0.0000000   0.0000000), wk =   0.0400000
        k(   28) = (   0.2700000   0.0000000   0.0000000), wk =   0.0400000
        k(   29) = (   0.2800000   0.0000000   0.0000000), wk =   0.0400000
        k(   30) = (   0.2900000   0.0000000   0.0000000), wk =   0.0400000
        k(   31) = (   0.3000000   0.0000000   0.0000000), wk =   0.0400000
        k(   32) = (   0.3100000   0.0000000   0.0000000), wk =   0.0400000
        k(   33) = (   0.3200000   0.0000000   0.0000000), wk =   0.0400000
        k(   34) = (   0.3300000   0.0000000   0.0000000), wk =   0.0400000
        k(   35) = (   0.3400000   0.0000000   0.0000000), wk =   0.0400000
        k(   36) = (   0.3500000   0.0000000   0.0000000), wk =   0.0400000
        k(   37) = (   0.3600000   0.0000000   0.0000000), wk =   0.0400000
        k(   38) = (   0.3700000   0.0000000   0.0000000), wk =   0.0400000
        k(   39) = (   0.3800000   0.0000000   0.0000000), wk =   0.0400000
        k(   40) = (   0.3900000   0.0000000   0.0000000), wk =   0.0400000
        k(   41) = (   0.4000000   0.0000000   0.0000000), wk =   0.0400000
        k(   42) = (   0.4100000   0.0000000   0.0000000), wk =   0.0400000
        k(   43) = (   0.4200000   0.0000000   0.0000000), wk =   0.0400000
        k(   44) = (   0.4300000   0.0000000   0.0000000), wk =   0.0400000
        k(   45) = (   0.4400000   0.0000000   0.0000000), wk =   0.0400000
        k(   46) = (   0.4500000   0.0000000   0.0000000), wk =   0.0400000
        k(   47) = (   0.4600000   0.0000000   0.0000000), wk =   0.0400000
        k(   48) = (   0.4700000   0.0000000   0.0000000), wk =   0.0400000
        k(   49) = (   0.4800000   0.0000000   0.0000000), wk =   0.0400000
        k(   50) = (   0.4900000   0.0000000   0.0000000), wk =   0.0400000
        k(   51) = (  -0.5000000   0.0000000   0.0000000), wk =   0.0200000

                       cryst. coord.
        k(    1) = (   0.0000000   0.0000000   0.0000000), wk =   0.0200000
        k(    2) = (   0.0100000   0.0000000   0.0000000), wk =   0.0400000
        k(    3) = (   0.0200000   0.0000000   0.0000000), wk =   0.0400000
        k(    4) = (   0.0300000   0.0000000   0.0000000), wk =   0.0400000
        k(    5) = (   0.0400000   0.0000000   0.0000000), wk =   0.0400000
        k(    6) = (   0.0500000   0.0000000   0.0000000), wk =   0.0400000
        k(    7) = (   0.0600000   0.0000000   0.0000000), wk =   0.0400000
        k(    8) = (   0.0700000   0.0000000   0.0000000), wk =   0.0400000
        k(    9) = (   0.0800000   0.0000000   0.0000000), wk =   0.0400000
        k(   10) = (   0.0900000   0.0000000   0.0000000), wk =   0.0400000
        k(   11) = (   0.1000000   0.0000000   0.0000000), wk =   0.0400000
        k(   12) = (   0.1100000   0.0000000   0.0000000), wk =   0.0400000
        k(   13) = (   0.1200000   0.0000000   0.0000000), wk =   0.0400000
        k(   14) = (   0.1300000   0.0000000   0.0000000), wk =   0.0400000
        k(   15) = (   0.1400000   0.0000000   0.0000000), wk =   0.0400000
        k(   16) = (   0.1500000   0.0000000   0.0000000), wk =   0.0400000
        k(   17) = (   0.1600000   0.0000000   0.0000000), wk =   0.0400000
        k(   18) = (   0.1700000   0.0000000   0.0000000), wk =   0.0400000
        k(   19) = (   0.1800000   0.0000000   0.0000000), wk =   0.0400000
        k(   20) = (   0.1900000   0.0000000   0.0000000), wk =   0.0400000
        k(   21) = (   0.2000000   0.0000000   0.0000000), wk =   0.0400000
        k(   22) = (   0.2100000   0.0000000   0.0000000), wk =   0.0400000
        k(   23) = (   0.2200000   0.0000000   0.0000000), wk =   0.0400000
        k(   24) = (   0.2300000   0.0000000   0.0000000), wk =   0.0400000
        k(   25) = (   0.2400000   0.0000000   0.0000000), wk =   0.0400000
        k(   26) = (   0.2500000   0.0000000   0.0000000), wk =   0.0400000
        k(   27) = (   0.2600000   0.0000000   0.0000000), wk =   0.0400000
        k(   28) = (   0.2700000   0.0000000   0.0000000), wk =   0.0400000
        k(   29) = (   0.2800000   0.0000000   0.0000000), wk =   0.0400000
        k(   30) = (   0.2900000   0.0000000   0.0000000), wk =   0.0400000
        k(   31) = (   0.3000000   0.0000000   0.0000000), wk =   0.0400000
        k(   32) = (   0.3100000   0.0000000   0.0000000), wk =   0.0400000
        k(   33) = (   0.3200000   0.0000000   0.0000000), wk =   0.0400000
        k(   34) = (   0.3300000   0.0000000   0.0000000), wk =   0.0400000
        k(   35) = (   0.3400000   0.0000000   0.0000000), wk =   0.0400000
        k(   36) = (   0.3500000   0.0000000   0.0000000), wk =   0.0400000
        k(   37) = (   0.3600000   0.0000000   0.0000000), wk =   0.0400000
        k(   38) = (   0.3700000   0.0000000   0.0000000), wk =   0.0400000
        k(   39) = (   0.3800000   0.0000000   0.0000000), wk =   0.0400000
        k(   40) = (   0.3900000   0.0000000   0.0000000), wk =   0.0400000
        k(   41) = (   0.4000000   0.0000000   0.0000000), wk =   0.0400000
        k(   42) = (   0.4100000   0.0000000   0.0000000), wk =   0.0400000
        k(   43) = (   0.4200000   0.0000000   0.0000000), wk =   0.0400000
        k(   44) = (   0.4300000   0.0000000   0.0000000), wk =   0.0400000
        k(   45) = (   0.4400000   0.0000000   0.0000000), wk =   0.0400000
        k(   46) = (   0.4500000   0.0000000   0.0000000), wk =   0.0400000
        k(   47) = (   0.4600000   0.0000000   0.0000000), wk =   0.0400000
        k(   48) = (   0.4700000   0.0000000   0.0000000), wk =   0.0400000
        k(   49) = (   0.4800000   0.0000000   0.0000000), wk =   0.0400000
        k(   50) = (   0.4900000   0.0000000   0.0000000), wk =   0.0400000
        k(   51) = (  -0.5000000   0.0000000   0.0000000), wk =   0.0200000

     Dense  grid:   233967 G-vectors     FFT dimensions: (  32, 125, 125)

     Smooth grid:    82581 G-vectors     FFT dimensions: (  24,  90,  90)

     Dynamical RAM for                 wfc:       2.52 MB

     Dynamical RAM for     wfc (w. buffer):       7.57 MB

     Dynamical RAM for           str. fact:       3.57 MB

     Dynamical RAM for           local pot:       0.00 MB

     Dynamical RAM for          nlocal pot:       2.52 MB

     Dynamical RAM for                qrad:       0.46 MB

     Dynamical RAM for          rho,v,vnew:      22.15 MB

     Dynamical RAM for               rhoin:       7.38 MB

     Dynamical RAM for            rho*nmix:      57.12 MB

     Dynamical RAM for           G-vectors:      14.02 MB

     Dynamical RAM for          h,s,v(r/c):       0.05 MB

     Dynamical RAM for          <psi|beta>:       0.00 MB

     Dynamical RAM for                 psi:       5.05 MB

     Dynamical RAM for                hpsi:       5.05 MB

     Dynamical RAM for                spsi:       5.05 MB

     Dynamical RAM for      wfcinit/wfcrot:       5.05 MB

     Dynamical RAM for           addusdens:       9.18 MB

     Dynamical RAM for          addusforce:       7.78 MB

     Dynamical RAM for         addusstress:       8.10 MB

     Estimated static dynamical RAM per process >     141.01 MB

     Estimated max dynamical RAM per process >     156.21 MB

     Estimated total dynamical RAM >       4.27 GB

     Check: negative core charge=   -0.000002

     Initial potential from superposition of free atoms

     starting charge    7.99992, renormalised to    8.00000

     negative rho (up, down):  9.848E-05 0.000E+00
     Starting wfcs are    8 randomized atomic wfcs +    8 random wfcs
     Checking if some PAW data can be deallocated... 

     total cpu time spent up to now is        4.1 secs

     Self-consistent Calculation

     iteration #  1     ecut=    50.00 Ry     beta= 0.70
     Davidson diagonalization with overlap
     ethr =  1.00E-02,  avg # of iterations =  9.1

     negative rho (up, down):  1.441E-04 0.000E+00

     total cpu time spent up to now is        6.7 secs

     total energy              =     -36.68388176 Ry
     estimated scf accuracy    <       0.27337120 Ry

     iteration #  2     ecut=    50.00 Ry     beta= 0.70
     Davidson diagonalization with overlap
     ethr =  3.42E-03,  avg # of iterations =  2.1

     negative rho (up, down):  1.552E-04 0.000E+00

     total cpu time spent up to now is        7.8 secs

     total energy              =     -36.74245278 Ry
     estimated scf accuracy    <       0.01004171 Ry

     iteration #  3     ecut=    50.00 Ry     beta= 0.70
     Davidson diagonalization with overlap
     ethr =  1.26E-04,  avg # of iterations =  3.6

     negative rho (up, down):  1.807E-04 0.000E+00

     total cpu time spent up to now is        9.2 secs

     total energy              =     -36.74403770 Ry
     estimated scf accuracy    <       0.00022616 Ry

     iteration #  4     ecut=    50.00 Ry     beta= 0.70
     Davidson diagonalization with overlap
     c_bands:  1 eigenvalues not converged
     ethr =  2.83E-06,  avg # of iterations =  9.1

     negative rho (up, down):  1.822E-04 0.000E+00

     total cpu time spent up to now is       10.9 secs

     total energy              =     -36.74403504 Ry
     estimated scf accuracy    <       0.00016098 Ry

     iteration #  5     ecut=    50.00 Ry     beta= 0.70
     Davidson diagonalization with overlap
     ethr =  2.01E-06,  avg # of iterations =  2.0

     negative rho (up, down):  1.841E-04 0.000E+00

     total cpu time spent up to now is       12.1 secs

     total energy              =     -36.74406300 Ry
     estimated scf accuracy    <       0.00000269 Ry

     iteration #  6     ecut=    50.00 Ry     beta= 0.70
     Davidson diagonalization with overlap
     ethr =  3.36E-08,  avg # of iterations =  2.0

     negative rho (up, down):  1.845E-04 0.000E+00

     total cpu time spent up to now is       13.2 secs

     total energy              =     -36.74406376 Ry
     estimated scf accuracy    <       0.00000005 Ry

     iteration #  7     ecut=    50.00 Ry     beta= 0.70
     Davidson diagonalization with overlap
     ethr =  6.36E-10,  avg # of iterations =  2.4

     negative rho (up, down):  1.845E-04 0.000E+00

     total cpu time spent up to now is       14.3 secs

     End of self-consistent calculation

          k = 0.0000 0.0000 0.0000 ( 10379 PWs)   bands (ev):

   -20.6780 -13.4756  -9.7333  -9.7333  -0.1570   1.3960   1.3960   1.4421
     1.6583   2.4008   3.0326   3.0326   3.5053   4.1741   4.5464   5.9453

     occupation numbers 
     1.0000   1.0000   1.0000   1.0000   0.0000   0.0000   0.0000   0.0000
     0.0000   0.0000   0.0000   0.0000   0.0000   0.0000   0.0000   0.0000

          k = 0.0100 0.0000 0.0000 ( 10379 PWs)   bands (ev):

   -20.6767 -13.4784  -9.7312  -9.7312  -0.1548   1.3982   1.3982   1.4444
     1.6605   2.4031   3.0348   3.0348   3.5075   4.1778   4.5486   5.9483

     occupation numbers 
     1.0000   1.0000   1.0000   1.0000   0.0000   0.0000   0.0000   0.0000
     0.0000   0.0000   0.0000   0.0000   0.0000   0.0000   0.0000   0.0000

          k = 0.0200 0.0000 0.0000 ( 10387 PWs)   bands (ev):

   -20.6728 -13.4866  -9.7247  -9.7247  -0.1481   1.4050   1.4050   1.4512
     1.6671   2.4100   3.0417   3.0417   3.5141   4.1890   4.5555   5.9543

     occupation numbers 
     1.0000   1.0000   1.0000   1.0000   0.0000   0.0000   0.0000   0.0000
     0.0000   0.0000   0.0000   0.0000   0.0000   0.0000   0.0000   0.0000

          k = 0.0300 0.0000 0.0000 ( 10379 PWs)   bands (ev):

   -20.6663 -13.5002  -9.7139  -9.7139  -0.1371   1.4164   1.4164   1.4627
     1.6781   2.4214   3.0531   3.0531   3.5250   4.2077   4.5669   5.9658

     occupation numbers 
     1.0000   1.0000   1.0000   1.0000   0.0000   0.0000   0.0000   0.0000
     0.0000   0.0000   0.0000   0.0000   0.0000   0.0000   0.0000   0.0000

          k = 0.0400 0.0000 0.0000 ( 10355 PWs)   bands (ev):

   -20.6573 -13.5193  -9.6988  -9.6988  -0.1217   1.4323   1.4323   1.4787
     1.6935   2.4374   3.0690   3.0690   3.5404   4.2338   4.5829   5.9830

     occupation numbers 
     1.0000   1.0000   1.0000   1.0000   0.0000   0.0000   0.0000   0.0000
     0.0000   0.0000   0.0000   0.0000   0.0000   0.0000   0.0000   0.0000

          k = 0.0500 0.0000 0.0000 ( 10355 PWs)   bands (ev):

   -20.6457 -13.5436  -9.6794  -9.6794  -0.1018   1.4528   1.4528   1.4992
     1.7132   2.4579   3.0895   3.0895   3.5601   4.2672   4.6035   6.0027

     occupation numbers 
     1.0000   1.0000   1.0000   1.0000   0.0000   0.0000   0.0000   0.0000
     0.0000   0.0000   0.0000   0.0000   0.0000   0.0000   0.0000   0.0000

          k = 0.0600 0.0000 0.0000 ( 10339 PWs)   bands (ev):

   -20.6315 -13.5733  -9.6556  -9.6556  -0.0776   1.4778   1.4778   1.5244
     1.7373   2.4831   3.1145   3.1145   3.5842   4.3077   4.6286   6.0278

     occupation numbers 
     1.0000   1.0000   1.0000   1.0000   0.0000   0.0000   0.0000   0.0000
     0.0000   0.0000   0.0000   0.0000   0.0000   0.0000   0.0000   0.0000

          k = 0.0700 0.0000 0.0000 ( 10347 PWs)   bands (ev):

   -20.6147 -13.6081  -9.6276  -9.6276  -0.0489   1.5073   1.5073   1.5541
     1.7658   2.5128   3.1441   3.1441   3.6127   4.3552   4.6583   6.0573

     occupation numbers 
     1.0000   1.0000   1.0000   1.0000   0.0000   0.0000   0.0000   0.0000
     0.0000   0.0000   0.0000   0.0000   0.0000   0.0000   0.0000   0.0000

          k = 0.0800 0.0000 0.0000 ( 10335 PWs)   bands (ev):

   -20.5954 -13.6479  -9.5952  -9.5952  -0.0158   1.5414   1.5414   1.5884
     1.7987   2.5471   3.1783   3.1783   3.6455   4.4096   4.6926   5.9923

     occupation numbers 
     1.0000   1.0000   1.0000   1.0000   0.0000   0.0000   0.0000   0.0000
     0.0000   0.0000   0.0000   0.0000   0.0000   0.0000   0.0000   0.0000

          k = 0.0900 0.0000 0.0000 ( 10343 PWs)   bands (ev):

   -20.5735 -13.6927  -9.5586  -9.5586   0.0216   1.5801   1.5801   1.6272
     1.8360   2.5859   3.2170   3.2170   3.6828   4.4706   4.7314   5.8082

     occupation numbers 
     1.0000   1.0000   1.0000   1.0000   0.0000   0.0000   0.0000   0.0000
     0.0000   0.0000   0.0000   0.0000   0.0000   0.0000   0.0000   0.0000

          k = 0.1000 0.0000 0.0000 ( 10355 PWs)   bands (ev):

   -20.5490 -13.7423  -9.5176  -9.5176   0.0635   1.6233   1.6233   1.6706
     1.8776   2.6293   3.2602   3.2602   3.7244   4.5381   4.7749   5.6097

     occupation numbers 
     1.0000   1.0000   1.0000   1.0000   0.0000   0.0000   0.0000   0.0000
     0.0000   0.0000   0.0000   0.0000   0.0000   0.0000   0.0000   0.0000

          k = 0.1100 0.0000 0.0000 ( 10367 PWs)   bands (ev):

   -20.5221 -13.7965  -9.4723  -9.4723   0.1097   1.6710   1.6710   1.7186
     1.9236   2.6773   3.3080   3.3081   3.7703   4.6118   4.8228   5.3984

     occupation numbers 
     1.0000   1.0000   1.0000   1.0000   0.0000   0.0000   0.0000   0.0000
     0.0000   0.0000   0.0000   0.0000   0.0000   0.0000   0.0000   0.0000

          k = 0.1200 0.0000 0.0000 ( 10367 PWs)   bands (ev):

   -20.4925 -13.8552  -9.4227  -9.4227   0.1604   1.7233   1.7233   1.7712
     1.9740   2.7299   3.3604   3.3604   3.8207   4.6914   4.8754   5.1759

     occupation numbers 
     1.0000   1.0000   1.0000   1.0000   0.0000   0.0000   0.0000   0.0000
     0.0000   0.0000   0.0000   0.0000   0.0000   0.0000   0.0000   0.0000

          k = 0.1300 0.0000 0.0000 ( 10343 PWs)   bands (ev):

   -20.4605 -13.9182  -9.3689  -9.3689   0.2154   1.7801   1.7801   1.8283
     2.0288   2.7870   3.4173   3.4173   3.8754   4.7767   4.9437   4.9437

     occupation numbers 
     1.0000   1.0000   1.0000   1.0000   0.0000   0.0000   0.0000   0.0000
     0.0000   0.0000   0.0000   0.0000   0.0000   0.0000   0.0000   0.0000

          k = 0.1400 0.0000 0.0000 ( 10343 PWs)   bands (ev):

   -20.4260 -13.9854  -9.3107  -9.3107   0.2748   1.8414   1.8414   1.8900
     2.0879   2.8487   3.4787   3.4787   3.9345   4.7032   4.7032   4.8673

     occupation numbers 
     1.0000   1.0000   1.0000   1.0000   0.0000   0.0000   0.0000   0.0000
     0.0000   0.0000   0.0000   0.0000   0.0000   0.0000   0.0000   0.0000

          k = 0.1500 0.0000 0.0000 ( 10351 PWs)   bands (ev):

   -20.3890 -14.0566  -9.2483  -9.2483   0.3386   1.9073   1.9073   1.9563
     2.1513   2.9150   3.5446   3.5446   3.9979   4.4555   4.4555   4.9628

     occupation numbers 
     1.0000   1.0000   1.0000   1.0000   0.0000   0.0000   0.0000   0.0000
     0.0000   0.0000   0.0000   0.0000   0.0000   0.0000   0.0000   0.0000

          k = 0.1600 0.0000 0.0000 ( 10347 PWs)   bands (ev):

   -20.3495 -14.1316  -9.1815  -9.1815   0.4067   1.9777   1.9777   2.0271
     2.2191   2.9858   3.6149   3.6149   4.0657   4.2019   4.2019   5.0628

     occupation numbers 
     1.0000   1.0000   1.0000   1.0000   0.0000   0.0000   0.0000   0.0000
     0.0000   0.0000   0.0000   0.0000   0.0000   0.0000   0.0000   0.0000

          k = 0.1700 0.0000 0.0000 ( 10371 PWs)   bands (ev):

   -20.3075 -14.2101  -9.1105  -9.1105   0.4792   2.0527   2.0527   2.1025
     2.2912   3.0612   3.6890   3.6890   3.9439   3.9439   4.1378   5.1670

     occupation numbers 
     1.0000   1.0000   1.0000   1.0000   0.0000   0.0000   0.0000   0.0000
     0.0000   0.0000   0.0000   0.0000   0.0000   0.0000   0.0000   0.0000

          k = 0.1800 0.0000 0.0000 ( 10383 PWs)   bands (ev):

   -20.2631 -14.2921  -9.0352  -9.0352   0.5560   2.1321   2.1321   2.1825
     2.3677   3.1412   3.6742   3.6742   3.7753   3.7753   4.2142   5.2749

     occupation numbers 
     1.0000   1.0000   1.0000   1.0000   0.0000   0.0000   0.0000   0.0000
     0.0000   0.0000   0.0000   0.0000   0.0000   0.0000   0.0000   0.0000

          k = 0.1900 0.0000 0.0000 ( 10387 PWs)   bands (ev):

   -20.2163 -14.3774  -8.9556  -8.9556   0.6372   2.2161   2.2161   2.2671
     2.4485   3.2257   3.4115   3.4115   3.8559   3.8559   4.2950   5.3859

     occupation numbers 
     1.0000   1.0000   1.0000   1.0000   0.0000   0.0000   0.0000   0.0000
     0.0000   0.0000   0.0000   0.0000   0.0000   0.0000   0.0000   0.0000

          k = 0.2000 0.0000 0.0000 ( 10395 PWs)   bands (ev):

   -20.1670 -14.4657  -8.8718  -8.8718   0.7227   2.3044   2.3044   2.3562
     2.5336   3.1431   3.1431   3.3149   3.9442   3.9442   4.3801   5.4996

     occupation numbers 
     1.0000   1.0000   1.0000   1.0000   0.0000   0.0000   0.0000   0.0000
     0.0000   0.0000   0.0000   0.0000   0.0000   0.0000   0.0000   0.0000

          k = 0.2100 0.0000 0.0000 ( 10387 PWs)   bands (ev):

   -20.1154 -14.5568  -8.7837  -8.7837   0.8125   2.3967   2.3967   2.4499
     2.6230   2.8728   2.8728   3.4086   4.0374   4.0374   4.4695   5.6154

     occupation numbers 
     1.0000   1.0000   1.0000   1.0000   0.0000   0.0000   0.0000   0.0000
     0.0000   0.0000   0.0000   0.0000   0.0000   0.0000   0.0000   0.0000

          k = 0.2200 0.0000 0.0000 ( 10403 PWs)   bands (ev):

   -20.0614 -14.6506  -8.6913  -8.6913   0.9067   2.4880   2.4880   2.5481
     2.6067   2.6067   2.7167   3.5068   4.1352   4.1352   4.5632   5.6523

     occupation numbers 
     1.0000   1.0000   1.0000   1.0000   0.0000   0.0000   0.0000   0.0000
     0.0000   0.0000   0.0000   0.0000   0.0000   0.0000   0.0000   0.0000

          k = 0.2300 0.0000 0.0000 ( 10379 PWs)   bands (ev):

   -20.0051 -14.7468  -8.5947  -8.5947   1.0051   2.3214   2.3214   2.6020
     2.6020   2.6510   2.8146   3.6097   4.2376   4.2376   4.6612   5.7551

     occupation numbers 
     1.0000   1.0000   1.0000   1.0000   0.0000   0.0000   0.0000   0.0000
     0.0000   0.0000   0.0000   0.0000   0.0000   0.0000   0.0000   0.0000

          k = 0.2400 0.0000 0.0000 ( 10367 PWs)   bands (ev):

   -19.9464 -14.8454  -8.4939  -8.4939   1.1078   2.0494   2.0494   2.7069
     2.7069   2.7584   2.9169   3.7171   4.3445   4.3445   4.7635   5.8625

     occupation numbers 
     1.0000   1.0000   1.0000   1.0000   0.0000   0.0000   0.0000   0.0000
     0.0000   0.0000   0.0000   0.0000   0.0000   0.0000   0.0000   0.0000

          k = 0.2500 0.0000 0.0000 ( 10359 PWs)   bands (ev):

   -19.8854 -14.9461  -8.3889  -8.3889   1.2147   1.7759   1.7759   2.8177
     2.8177   2.8703   3.0233   3.8290   4.4561   4.4561   4.8701   5.9745

     occupation numbers 
     1.0000   1.0000   1.0000   1.0000   0.0000   0.0000   0.0000   0.0000
     0.0000   0.0000   0.0000   0.0000   0.0000   0.0000   0.0000   0.0000

          k = 0.2600 0.0000 0.0000 ( 10367 PWs)   bands (ev):

   -19.8222 -15.0487  -8.2796  -8.2796   1.3259   1.5025   1.5025   2.9333
     2.9333   2.9869   3.1340   3.9456   4.5722   4.5722   4.9808   6.1988

     occupation numbers 
     1.0000   1.0000   1.0000   1.0000   0.0000   0.0000   0.0000   0.0000
     0.0000   0.0000   0.0000   0.0000   0.0000   0.0000   0.0000   0.0000

          k = 0.2700 0.0000 0.0000 ( 10351 PWs)   bands (ev):

   -19.7567 -15.1531  -8.1661  -8.1661   1.2296   1.2296   1.4413   3.0536
     3.0536   3.1080   3.2489   4.0667   4.6928   4.6928   5.0958   6.2121

     occupation numbers 
     1.0000   1.0000   1.0000   1.0000   0.0000   0.0000   0.0000   0.0000
     0.0000   0.0000   0.0000   0.0000   0.0000   0.0000   0.0000   0.0000

          k = 0.2800 0.0000 0.0000 ( 10351 PWs)   bands (ev):

   -19.6890 -15.2590  -8.0484  -8.0484   0.9578   0.9578   1.5609   3.1785
     3.1785   3.2337   3.3680   4.1924   4.8180   4.8180   5.2150   6.3378

     occupation numbers 
     1.0000   1.0000   1.0000   1.0000   0.0000   0.0000   0.0000   0.0000
     0.0000   0.0000   0.0000   0.0000   0.0000   0.0000   0.0000   0.0000

          k = 0.2900 0.0000 0.0000 ( 10347 PWs)   bands (ev):

   -19.6191 -15.3664  -7.9265  -7.9265   0.6872   0.6872   1.6847   3.3079
     3.3079   3.3639   3.4913   4.3226   4.9477   4.9477   5.3384   6.5172

     occupation numbers 
     1.0000   1.0000   1.0000   1.0000   0.0000   0.0000   0.0000   0.0000
     0.0000   0.0000   0.0000   0.0000   0.0000   0.0000   0.0000   0.0000

          k = 0.3000 0.0000 0.0000 ( 10355 PWs)   bands (ev):

   -19.5471 -15.4751  -7.8005  -7.8005   0.4181   0.4181   1.8126   3.4419
     3.4419   3.4988   3.6187   4.4574   5.0820   5.0820   5.4660   6.6102

     occupation numbers 
     1.0000   1.0000   1.0000   1.0000   0.0000   0.0000   0.0000   0.0000
     0.0000   0.0000   0.0000   0.0000   0.0000   0.0000   0.0000   0.0000

          k = 0.3100 0.0000 0.0000 ( 10375 PWs)   bands (ev):

   -19.4729 -15.5848  -7.6703  -7.6703   0.1507   0.1507   1.9446   3.5804
     3.5804   3.6382   3.7502   4.5968   5.2208   5.2208   5.5976   6.6938

     occupation numbers 
     1.0000   1.0000   1.0000   1.0000   0.0000   0.0000   0.0000   0.0000
     0.0000   0.0000   0.0000   0.0000   0.0000   0.0000   0.0000   0.0000

          k = 0.3200 0.0000 0.0000 ( 10355 PWs)   bands (ev):

   -19.3967 -15.6956  -7.5359  -7.5359  -0.1147  -0.1147   2.0806   3.7234
     3.7234   3.7821   3.8858   4.7408   5.3642   5.3642   5.7333   6.7660

     occupation numbers 
     1.0000   1.0000   1.0000   1.0000   0.0000   0.0000   0.0000   0.0000
     0.0000   0.0000   0.0000   0.0000   0.0000   0.0000   0.0000   0.0000

          k = 0.3300 0.0000 0.0000 ( 10339 PWs)   bands (ev):

   -19.3184 -15.8071  -7.3974  -7.3974  -0.3779  -0.3779   2.2207   3.8710
     3.8710   3.9307   4.0255   4.8893   5.5121   5.5121   5.8730   6.8248

     occupation numbers 
     1.0000   1.0000   1.0000   1.0000   0.0000   0.0000   0.0000   0.0000
     0.0000   0.0000   0.0000   0.0000   0.0000   0.0000   0.0000   0.0000

          k = 0.3400 0.0000 0.0000 ( 10359 PWs)   bands (ev):

   -19.2381 -15.9193  -7.2548  -7.2548  -0.6388  -0.6388   2.3647   4.0231
     4.0231   4.0838   4.1691   5.0424   5.6646   5.6646   6.0167   6.8680

     occupation numbers 
     1.0000   1.0000   1.0000   1.0000   0.0000   0.0000   0.0000   0.0000
     0.0000   0.0000   0.0000   0.0000   0.0000   0.0000   0.0000   0.0000

          k = 0.3500 0.0000 0.0000 ( 10323 PWs)   bands (ev):

   -19.1559 -16.0320  -7.1081  -7.1081  -0.8973  -0.8973   2.5127   4.1798
     4.1798   4.2415   4.3167   5.2001   5.8216   5.8216   6.1641   6.8935

     occupation numbers 
     1.0000   1.0000   1.0000   1.0000   0.0000   0.0000   0.0000   0.0000
     0.0000   0.0000   0.0000   0.0000   0.0000   0.0000   0.0000   0.0000

          k = 0.3600 0.0000 0.0000 ( 10335 PWs)   bands (ev):

   -19.0717 -16.1451  -6.9573  -6.9573  -1.1531  -1.1531   2.6644   4.3409
     4.3409   4.4037   4.4681   5.3623   5.9831   5.9831   6.3152   6.8996

     occupation numbers 
     1.0000   1.0000   1.0000   1.0000   0.0000   0.0000   0.0000   0.0000
     0.0000   0.0000   0.0000   0.0000   0.0000   0.0000   0.0000   0.0000

          k = 0.3700 0.0000 0.0000 ( 10327 PWs)   bands (ev):

   -18.9856 -16.2584  -6.8025  -6.8025  -1.4061  -1.4061   2.8200   4.5066
     4.5066   4.5705   4.6234   5.5291   6.1492   6.1492   6.4690   6.8855

     occupation numbers 
     1.0000   1.0000   1.0000   1.0000   0.0000   0.0000   0.0000   0.0000
     0.0000   0.0000   0.0000   0.0000   0.0000   0.0000   0.0000   0.0000

          k = 0.3800 0.0000 0.0000 ( 10315 PWs)   bands (ev):

   -18.8978 -16.3719  -6.6437  -6.6437  -1.6563  -1.6563   2.9792   4.6768
     4.6768   4.7419   4.7825   5.7005   6.3198   6.3198   6.6226   6.8530

     occupation numbers 
     1.0000   1.0000   1.0000   1.0000   0.0000   0.0000   0.0000   0.0000
     0.0000   0.0000   0.0000   0.0000   0.0000   0.0000   0.0000   0.0000

          k = 0.3900 0.0000 0.0000 ( 10299 PWs)   bands (ev):

   -18.8081 -16.4853  -6.4808  -6.4808  -1.9034  -1.9034   3.1420   4.8515
     4.8515   4.9179   4.9453   5.8765   6.4949   6.4949   6.7352   6.8429

     occupation numbers 
     1.0000   1.0000   1.0000   1.0000   0.0000   0.0000   0.0000   0.0000
     0.0000   0.0000   0.0000   0.0000   0.0000   0.0000   0.0000   0.0000

          k = 0.4000 0.0000 0.0000 ( 10291 PWs)   bands (ev):

   -18.7167 -16.5987  -6.3141  -6.3141  -2.1474  -2.1474   3.3083   5.0308
     5.0308   5.0984   5.1116   6.0570   6.6746   6.6746   6.6862   6.9762

     occupation numbers 
     1.0000   1.0000   1.0000   1.0000   0.0000   0.0000   0.0000   0.0000
     0.0000   0.0000   0.0000   0.0000   0.0000   0.0000   0.0000   0.0000

          k = 0.4100 0.0000 0.0000 ( 10279 PWs)   bands (ev):

   -18.6237 -16.7117  -6.1434  -6.1434  -2.3881  -2.3881   3.4778   5.2145
     5.2145   5.2813   5.2835   6.2421   6.5878   6.8588   6.8588   7.1420

     occupation numbers 
     1.0000   1.0000   1.0000   1.0000   0.0000   0.0000   0.0000   0.0000
     0.0000   0.0000   0.0000   0.0000   0.0000   0.0000   0.0000   0.0000

          k = 0.4200 0.0000 0.0000 ( 10287 PWs)   bands (ev):

   -18.5291 -16.8244  -5.9689  -5.9689  -2.6254  -2.6254   3.6505   5.4028
     5.4028   5.4543   5.4732   6.4318   6.4681   7.0476   7.0476   7.3143

     occupation numbers 
     1.0000   1.0000   1.0000   1.0000   0.0000   0.0000   0.0000   0.0000
     0.0000   0.0000   0.0000   0.0000   0.0000   0.0000   0.0000   0.0000

          k = 0.4300 0.0000 0.0000 ( 10271 PWs)   bands (ev):

   -18.4331 -16.9365  -5.7907  -5.7907  -2.8592  -2.8592   3.8262   5.5955
     5.5955   5.6301   5.6674   6.3320   6.6260   7.2408   7.2408   7.4908

     occupation numbers 
     1.0000   1.0000   1.0000   1.0000   0.0000   0.0000   0.0000   0.0000
     0.0000   0.0000   0.0000   0.0000   0.0000   0.0000   0.0000   0.0000

          k = 0.4400 0.0000 0.0000 ( 10251 PWs)   bands (ev):

   -18.3356 -17.0480  -5.6090  -5.6090  -3.0892  -3.0892   4.0046   5.7928
     5.7928   5.8073   5.8662   6.1839   6.8248   7.4386   7.4386   7.6701

     occupation numbers 
     1.0000   1.0000   1.0000   1.0000   0.0000   0.0000   0.0000   0.0000
     0.0000   0.0000   0.0000   0.0000   0.0000   0.0000   0.0000   0.0000

          k = 0.4500 0.0000 0.0000 ( 10271 PWs)   bands (ev):

   -18.2371 -17.1585  -5.4239  -5.4239  -3.3151  -3.3151   4.1854   5.9593
     5.9945   5.9945   6.0531   6.0696   7.0282   7.6408   7.6409   7.8444

     occupation numbers 
     1.0000   1.0000   1.0000   1.0000   0.0000   0.0000   0.0000   0.0000
     0.0000   0.0000   0.0000   0.0000   0.0000   0.0000   0.0000   0.0000

          k = 0.4600 0.0000 0.0000 ( 10278 PWs)   bands (ev):

   -18.1376 -17.2678  -5.2360  -5.2360  -3.5365  -3.5365   4.3683   5.8404
     6.1875   6.2008   6.2008   6.2775   7.2361   7.7404   7.8473   7.8474

     occupation numbers 
     1.0000   1.0000   1.0000   1.0000   0.0000   0.0000   0.0000   0.0000
     0.0000   0.0000   0.0000   0.0000   0.0000   0.0000   0.0000   0.0000

          k = 0.4700 0.0000 0.0000 ( 10254 PWs)   bands (ev):

   -18.0378 -17.3753  -5.0464  -5.0464  -3.7522  -3.7522   4.5527   5.6672
     6.3725   6.4115   6.4115   6.4900   7.4486   7.5432   7.7700   7.7707

     occupation numbers 
     1.0000   1.0000   1.0000   1.0000   0.0000   0.0000   0.0000   0.0000
     0.0000   0.0000   0.0000   0.0000   0.0000   0.0000   0.0000   0.0000

          k = 0.4800 0.0000 0.0000 ( 10238 PWs)   bands (ev):

   -17.9392 -17.4793  -4.8580  -4.8580  -3.9593  -3.9593   4.7379   5.4878
     6.5617   6.6266   6.6266   6.7071   7.3456   7.5326   7.5328   7.6217

     occupation numbers 
     1.0000   1.0000   1.0000   1.0000   0.0000   0.0000   0.0000   0.0000
     0.0000   0.0000   0.0000   0.0000   0.0000   0.0000   0.0000   0.0000

          k = 0.4900 0.0000 0.0000 ( 10254 PWs)   bands (ev):

   -17.8476 -17.5742  -4.6820  -4.6820  -4.1464  -4.1464   4.9219   5.3068
     6.7525   6.8461   6.8461   6.9288   7.1498   7.2997   7.2998   7.3860

     occupation numbers 
     1.0000   1.0000   1.0000   1.0000   0.0000   0.0000   0.0000   0.0000
     0.0000   0.0000   0.0000   0.0000   0.0000   0.0000   0.0000   0.0000

          k =-0.5000 0.0000 0.0000 ( 10242 PWs)   bands (ev):

   -17.7967 -17.6262  -4.5844  -4.5844  -4.2478  -4.2478   5.0674   5.1622
     6.9143   6.9863   7.0570   7.0570   7.0844   7.0844   7.1509   7.1592

     occupation numbers 
     1.0000   1.0000   1.0000   1.0000   0.0000   0.0000   0.0000   0.0000
     0.0000   0.0000   0.0000   0.0000   0.0000   0.0000   0.0000   0.0000

     highest occupied, lowest unoccupied level (ev):    -4.5844   -4.2478

!    total energy              =     -36.74406378 Ry

     total all-electron energy =      -152.272259 Ry
     estimated scf accuracy    <          8.0E-10 Ry

     The total energy is the sum of the following terms:
     one-electron contribution =     -65.67585294 Ry
     hartree contribution      =      33.79769409 Ry
     xc contribution           =      -9.08742059 Ry
     ewald contribution        =      16.56243273 Ry
     one-center paw contrib.   =     -12.34091706 Ry
      -> PAW hartree energy AE =       9.67522741 Ry
      -> PAW hartree energy PS =      -9.66624427 Ry
      -> PAW xc energy AE      =     -10.72493124 Ry
      -> PAW xc energy PS      =       4.54548933 Ry
      -> total E_H with PAW    =      33.80667723 Ry
      -> total E_XC with PAW   =     -15.26686250 Ry

     convergence has been achieved in   7 iterations

     negative rho (up, down):  1.845E-04 0.000E+00

     Forces acting on atoms (cartesian axes, Ry/au):

     atom    1 type  1   force =    -0.00002951    0.00000000    0.00000000
     atom    2 type  1   force =     0.00002951    0.00000000    0.00000000
     The non-local contrib.  to forces
     atom    1 type  1   force =    -0.07517021    0.00000000    0.00000000
     atom    2 type  1   force =     0.07516562    0.00000000    0.00000000
     The ionic contribution  to forces
     atom    1 type  1   force =    -0.33616272    0.00000000    0.00000000
     atom    2 type  1   force =     0.33616272    0.00000000    0.00000000
     The local contribution  to forces
     atom    1 type  1   force =     0.40796159    0.00000000    0.00000000
     atom    2 type  1   force =    -0.40794814    0.00000000    0.00000000
     The core correction contribution to forces
     atom    1 type  1   force =     0.00326993   -0.00000000   -0.00000000
     atom    2 type  1   force =    -0.00340563   -0.00000000   -0.00000000
     The Hubbard contrib.    to forces
     atom    1 type  1   force =     0.00000000    0.00000000    0.00000000
     atom    2 type  1   force =     0.00000000    0.00000000    0.00000000
     The SCF correction term to forces
     atom    1 type  1   force =     0.00000802   -0.00000000    0.00000000
     atom    2 type  1   force =    -0.00000895    0.00000000    0.00000000

     Total force =     0.000042     Total SCF correction =     0.000012
     SCF correction compared to forces is large: reduce conv_thr to get better values


     Computing stress (Cartesian axis) and pressure


     negative rho (up, down):  1.845E-04 0.000E+00
          total   stress  (Ry/bohr**3)                   (kbar)     P=       -0.05
  -0.00000013   0.00000000   0.00000000           -0.02        0.00        0.00
   0.00000000  -0.00000047   0.00000000            0.00       -0.07        0.00
   0.00000000   0.00000000  -0.00000047            0.00        0.00       -0.07

     kinetic stress (kbar)    624.33      0.00      0.00
                                0.00    907.47      0.00
                                0.00      0.00    907.47

     local   stress (kbar)  -7179.23      0.00      0.00
                                0.00    234.19     -0.00
                                0.00     -0.00    234.19

     nonloc. stress (kbar)    232.54      0.00      0.00
                                0.00    185.67      0.00
                                0.00      0.00    185.67

     hartree stress (kbar)   2870.45      0.00      0.00
                                0.00      0.63      0.00
                                0.00      0.00      0.63

     exc-cor stress (kbar)     -4.17     -0.00     -0.00
                               -0.00    -16.89     -0.00
                               -0.00     -0.00    -16.89

     corecor stress (kbar)   -194.49     -0.00      0.00
                               -0.00   -189.49     -0.00
                                0.00     -0.00   -189.49

     ewald   stress (kbar)   3650.55      0.00      0.00
                                0.00  -1121.64      0.00
                                0.00      0.00  -1121.64

     hubbard stress (kbar)      0.00      0.00      0.00
                                0.00      0.00      0.00
                                0.00      0.00      0.00

     DFT-D   stress (kbar)      0.00      0.00      0.00
                                0.00      0.00      0.00
                                0.00      0.00      0.00

     XDM     stress (kbar)      0.00      0.00      0.00
                                0.00      0.00      0.00
                                0.00      0.00      0.00

     dft-nl  stress (kbar)      0.00      0.00      0.00
                                0.00      0.00      0.00
                                0.00      0.00      0.00

     TS-vdW  stress (kbar)      0.00      0.00      0.00
                                0.00      0.00      0.00
                                0.00      0.00      0.00



     BFGS Geometry Optimization
     Energy error            =      0.0E+00
     Gradient error          =      3.0E-05

     number of scf cycles    =   1
     number of bfgs steps    =   0

     energy   new            =     -36.7440637776 Ry

     new trust radius        =       0.0000295087 bohr
     new conv_thr            =       0.0000000100 Ry


ATOMIC_POSITIONS (angstrom)
C             0.0003781605        5.0000000000        5.0000000000
C             1.2643667345        5.0000000000        5.0000000000



     Writing output data file ./outdir/carbyne.save/
     NEW-OLD atomic charge density approx. for the potential

     Check: negative core charge=   -0.000002

     negative rho (up, down):  1.845E-04 0.000E+00

     total cpu time spent up to now is       16.7 secs

     Self-consistent Calculation

     iteration #  1     ecut=    50.00 Ry     beta= 0.70
     Davidson diagonalization with overlap
     ethr =  1.00E-06,  avg # of iterations =  1.1

     Threshold (ethr) on eigenvalues was too large:
     Diagonalizing with lowered threshold

     Davidson diagonalization with overlap
     ethr =  8.90E-11,  avg # of iterations =  1.9

     negative rho (up, down):  1.845E-04 0.000E+00

     total cpu time spent up to now is       18.4 secs

     End of self-consistent calculation

          k = 0.0000 0.0000 0.0000 ( 10379 PWs)   bands (ev):

   -20.6781 -13.4758  -9.7334  -9.7334  -0.1569   1.3960   1.3960   1.4422
     1.6583   2.4009   3.0326   3.0326   3.5053   4.1740   4.5464   5.9452

     occupation numbers 
     1.0000   1.0000   1.0000   1.0000   0.0000   0.0000   0.0000   0.0000
     0.0000   0.0000   0.0000   0.0000   0.0000   0.0000   0.0000   0.0000

          k = 0.0100 0.0000 0.0000 ( 10379 PWs)   bands (ev):

   -20.6768 -13.4785  -9.7313  -9.7313  -0.1547   1.3983   1.3983   1.4444
     1.6605   2.4032   3.0349   3.0349   3.5075   4.1778   4.5486   5.9483

     occupation numbers 
     1.0000   1.0000   1.0000   1.0000   0.0000   0.0000   0.0000   0.0000
     0.0000   0.0000   0.0000   0.0000   0.0000   0.0000   0.0000   0.0000

          k = 0.0200 0.0000 0.0000 ( 10387 PWs)   bands (ev):

   -20.6729 -13.4867  -9.7248  -9.7248  -0.1481   1.4051   1.4051   1.4513
     1.6671   2.4100   3.0417   3.0417   3.5141   4.1890   4.5555   5.9543

     occupation numbers 
     1.0000   1.0000   1.0000   1.0000   0.0000   0.0000   0.0000   0.0000
     0.0000   0.0000   0.0000   0.0000   0.0000   0.0000   0.0000   0.0000

          k = 0.0300 0.0000 0.0000 ( 10379 PWs)   bands (ev):

   -20.6664 -13.5004  -9.7140  -9.7140  -0.1371   1.4165   1.4165   1.4627
     1.6781   2.4214   3.0531   3.0531   3.5250   4.2077   4.5669   5.9658

     occupation numbers 
     1.0000   1.0000   1.0000   1.0000   0.0000   0.0000   0.0000   0.0000
     0.0000   0.0000   0.0000   0.0000   0.0000   0.0000   0.0000   0.0000

          k = 0.0400 0.0000 0.0000 ( 10355 PWs)   bands (ev):

   -20.6574 -13.5194  -9.6989  -9.6989  -0.1216   1.4324   1.4324   1.4787
     1.6935   2.4374   3.0690   3.0690   3.5404   4.2338   4.5829   5.9829

     occupation numbers 
     1.0000   1.0000   1.0000   1.0000   0.0000   0.0000   0.0000   0.0000
     0.0000   0.0000   0.0000   0.0000   0.0000   0.0000   0.0000   0.0000

          k = 0.0500 0.0000 0.0000 ( 10355 PWs)   bands (ev):

   -20.6458 -13.5438  -9.6795  -9.6795  -0.1018   1.4529   1.4529   1.4993
     1.7132   2.4580   3.0895   3.0895   3.5601   4.2671   4.6035   6.0027

     occupation numbers 
     1.0000   1.0000   1.0000   1.0000   0.0000   0.0000   0.0000   0.0000
     0.0000   0.0000   0.0000   0.0000   0.0000   0.0000   0.0000   0.0000

          k = 0.0600 0.0000 0.0000 ( 10339 PWs)   bands (ev):

   -20.6316 -13.5734  -9.6557  -9.6557  -0.0775   1.4779   1.4779   1.5244
     1.7373   2.4831   3.1146   3.1146   3.5842   4.3076   4.6286   6.0277

     occupation numbers 
     1.0000   1.0000   1.0000   1.0000   0.0000   0.0000   0.0000   0.0000
     0.0000   0.0000   0.0000   0.0000   0.0000   0.0000   0.0000   0.0000

          k = 0.0700 0.0000 0.0000 ( 10347 PWs)   bands (ev):

   -20.6148 -13.6082  -9.6277  -9.6277  -0.0489   1.5074   1.5074   1.5541
     1.7658   2.5129   3.1442   3.1442   3.6127   4.3552   4.6583   6.0573

     occupation numbers 
     1.0000   1.0000   1.0000   1.0000   0.0000   0.0000   0.0000   0.0000
     0.0000   0.0000   0.0000   0.0000   0.0000   0.0000   0.0000   0.0000

          k = 0.0800 0.0000 0.0000 ( 10335 PWs)   bands (ev):

   -20.5955 -13.6481  -9.5953  -9.5953  -0.0158   1.5415   1.5415   1.5884
     1.7987   2.5471   3.1783   3.1783   3.6455   4.4096   4.6926   5.9922

     occupation numbers 
     1.0000   1.0000   1.0000   1.0000   0.0000   0.0000   0.0000   0.0000
     0.0000   0.0000   0.0000   0.0000   0.0000   0.0000   0.0000   0.0000

          k = 0.0900 0.0000 0.0000 ( 10343 PWs)   bands (ev):

   -20.5736 -13.6929  -9.5586  -9.5586   0.0217   1.5801   1.5801   1.6273
     1.8360   2.5860   3.2170   3.2170   3.6828   4.4706   4.7314   5.8081

     occupation numbers 
     1.0000   1.0000   1.0000   1.0000   0.0000   0.0000   0.0000   0.0000
     0.0000   0.0000   0.0000   0.0000   0.0000   0.0000   0.0000   0.0000

          k = 0.1000 0.0000 0.0000 ( 10355 PWs)   bands (ev):

   -20.5491 -13.7424  -9.5177  -9.5177   0.0635   1.6233   1.6233   1.6707
     1.8776   2.6294   3.2603   3.2603   3.7244   4.5381   4.7749   5.6096

     occupation numbers 
     1.0000   1.0000   1.0000   1.0000   0.0000   0.0000   0.0000   0.0000
     0.0000   0.0000   0.0000   0.0000   0.0000   0.0000   0.0000   0.0000

          k = 0.1100 0.0000 0.0000 ( 10367 PWs)   bands (ev):

   -20.5222 -13.7966  -9.4724  -9.4724   0.1098   1.6711   1.6711   1.7187
     1.9237   2.6774   3.3081   3.3081   3.7703   4.6118   4.8228   5.3983

     occupation numbers 
     1.0000   1.0000   1.0000   1.0000   0.0000   0.0000   0.0000   0.0000
     0.0000   0.0000   0.0000   0.0000   0.0000   0.0000   0.0000   0.0000

          k = 0.1200 0.0000 0.0000 ( 10367 PWs)   bands (ev):

   -20.4927 -13.8554  -9.4228  -9.4228   0.1604   1.7233   1.7233   1.7712
     1.9740   2.7299   3.3604   3.3604   3.8207   4.6914   4.8754   5.1758

     occupation numbers 
     1.0000   1.0000   1.0000   1.0000   0.0000   0.0000   0.0000   0.0000
     0.0000   0.0000   0.0000   0.0000   0.0000   0.0000   0.0000   0.0000

          k = 0.1300 0.0000 0.0000 ( 10343 PWs)   bands (ev):

   -20.4606 -13.9184  -9.3689  -9.3689   0.2154   1.7801   1.7801   1.8283
     2.0288   2.7871   3.4173   3.4173   3.8754   4.7766   4.9436   4.9436

     occupation numbers 
     1.0000   1.0000   1.0000   1.0000   0.0000   0.0000   0.0000   0.0000
     0.0000   0.0000   0.0000   0.0000   0.0000   0.0000   0.0000   0.0000

          k = 0.1400 0.0000 0.0000 ( 10343 PWs)   bands (ev):

   -20.4261 -13.9856  -9.3108  -9.3108   0.2748   1.8415   1.8415   1.8900
     2.0879   2.8488   3.4787   3.4787   3.9345   4.7031   4.7031   4.8672

     occupation numbers 
     1.0000   1.0000   1.0000   1.0000   0.0000   0.0000   0.0000   0.0000
     0.0000   0.0000   0.0000   0.0000   0.0000   0.0000   0.0000   0.0000

          k = 0.1500 0.0000 0.0000 ( 10351 PWs)   bands (ev):

   -20.3891 -14.0567  -9.2483  -9.2483   0.3386   1.9074   1.9074   1.9563
     2.1513   2.9150   3.5446   3.5446   3.9979   4.4554   4.4554   4.9627

     occupation numbers 
     1.0000   1.0000   1.0000   1.0000   0.0000   0.0000   0.0000   0.0000
     0.0000   0.0000   0.0000   0.0000   0.0000   0.0000   0.0000   0.0000

          k = 0.1600 0.0000 0.0000 ( 10347 PWs)   bands (ev):

   -20.3496 -14.1317  -9.1816  -9.1816   0.4067   1.9778   1.9778   2.0272
     2.2191   2.9859   3.6150   3.6150   4.0657   4.2017   4.2017   5.0628

     occupation numbers 
     1.0000   1.0000   1.0000   1.0000   0.0000   0.0000   0.0000   0.0000
     0.0000   0.0000   0.0000   0.0000   0.0000   0.0000   0.0000   0.0000

          k = 0.1700 0.0000 0.0000 ( 10371 PWs)   bands (ev):

   -20.3076 -14.2103  -9.1106  -9.1106   0.4792   2.0528   2.0528   2.1026
     2.2912   3.0613   3.6891   3.6891   3.9438   3.9438   4.1378   5.1670

     occupation numbers 
     1.0000   1.0000   1.0000   1.0000   0.0000   0.0000   0.0000   0.0000
     0.0000   0.0000   0.0000   0.0000   0.0000   0.0000   0.0000   0.0000

          k = 0.1800 0.0000 0.0000 ( 10383 PWs)   bands (ev):

   -20.2632 -14.2923  -9.0353  -9.0353   0.5561   2.1322   2.1322   2.1825
     2.3677   3.1413   3.6741   3.6741   3.7753   3.7753   4.2142   5.2749

     occupation numbers 
     1.0000   1.0000   1.0000   1.0000   0.0000   0.0000   0.0000   0.0000
     0.0000   0.0000   0.0000   0.0000   0.0000   0.0000   0.0000   0.0000

          k = 0.1900 0.0000 0.0000 ( 10387 PWs)   bands (ev):

   -20.2164 -14.3775  -8.9557  -8.9557   0.6372   2.2161   2.2161   2.2671
     2.4485   3.2258   3.4114   3.4114   3.8559   3.8559   4.2950   5.3859

     occupation numbers 
     1.0000   1.0000   1.0000   1.0000   0.0000   0.0000   0.0000   0.0000
     0.0000   0.0000   0.0000   0.0000   0.0000   0.0000   0.0000   0.0000

          k = 0.2000 0.0000 0.0000 ( 10395 PWs)   bands (ev):

   -20.1672 -14.4658  -8.8719  -8.8719   0.7228   2.3044   2.3044   2.3562
     2.5336   3.1429   3.1429   3.3149   3.9442   3.9442   4.3801   5.4996

     occupation numbers 
     1.0000   1.0000   1.0000   1.0000   0.0000   0.0000   0.0000   0.0000
     0.0000   0.0000   0.0000   0.0000   0.0000   0.0000   0.0000   0.0000

          k = 0.2100 0.0000 0.0000 ( 10387 PWs)   bands (ev):

   -20.1155 -14.5569  -8.7838  -8.7838   0.8126   2.3968   2.3968   2.4499
     2.6230   2.8727   2.8727   3.4086   4.0374   4.0374   4.4695   5.6154

     occupation numbers 
     1.0000   1.0000   1.0000   1.0000   0.0000   0.0000   0.0000   0.0000
     0.0000   0.0000   0.0000   0.0000   0.0000   0.0000   0.0000   0.0000

          k = 0.2200 0.0000 0.0000 ( 10403 PWs)   bands (ev):

   -20.0615 -14.6507  -8.6914  -8.6914   0.9067   2.4881   2.4881   2.5482
     2.6065   2.6065   2.7167   3.5069   4.1352   4.1352   4.5632   5.6523

     occupation numbers 
     1.0000   1.0000   1.0000   1.0000   0.0000   0.0000   0.0000   0.0000
     0.0000   0.0000   0.0000   0.0000   0.0000   0.0000   0.0000   0.0000

          k = 0.2300 0.0000 0.0000 ( 10379 PWs)   bands (ev):

   -20.0052 -14.7470  -8.5948  -8.5948   1.0051   2.3213   2.3213   2.6020
     2.6020   2.6510   2.8146   3.6097   4.2376   4.2376   4.6612   5.7551

     occupation numbers 
     1.0000   1.0000   1.0000   1.0000   0.0000   0.0000   0.0000   0.0000
     0.0000   0.0000   0.0000   0.0000   0.0000   0.0000   0.0000   0.0000

          k = 0.2400 0.0000 0.0000 ( 10367 PWs)   bands (ev):

   -19.9465 -14.8456  -8.4940  -8.4940   1.1078   2.0493   2.0493   2.7069
     2.7069   2.7584   2.9169   3.7171   4.3446   4.3446   4.7635   5.8625

     occupation numbers 
     1.0000   1.0000   1.0000   1.0000   0.0000   0.0000   0.0000   0.0000
     0.0000   0.0000   0.0000   0.0000   0.0000   0.0000   0.0000   0.0000

          k = 0.2500 0.0000 0.0000 ( 10359 PWs)   bands (ev):

   -19.8855 -14.9462  -8.3889  -8.3889   1.2148   1.7758   1.7758   2.8177
     2.8177   2.8704   3.0233   3.8291   4.4561   4.4561   4.8701   5.9745

     occupation numbers 
     1.0000   1.0000   1.0000   1.0000   0.0000   0.0000   0.0000   0.0000
     0.0000   0.0000   0.0000   0.0000   0.0000   0.0000   0.0000   0.0000

          k = 0.2600 0.0000 0.0000 ( 10367 PWs)   bands (ev):

   -19.8223 -15.0488  -8.2797  -8.2797   1.3260   1.5024   1.5024   2.9334
     2.9334   2.9869   3.1340   3.9456   4.5722   4.5722   4.9808   6.1988

     occupation numbers 
     1.0000   1.0000   1.0000   1.0000   0.0000   0.0000   0.0000   0.0000
     0.0000   0.0000   0.0000   0.0000   0.0000   0.0000   0.0000   0.0000

          k = 0.2700 0.0000 0.0000 ( 10351 PWs)   bands (ev):

   -19.7568 -15.1532  -8.1662  -8.1662   1.2295   1.2295   1.4414   3.0537
     3.0537   3.1080   3.2489   4.0667   4.6928   4.6928   5.0958   6.2121

     occupation numbers 
     1.0000   1.0000   1.0000   1.0000   0.0000   0.0000   0.0000   0.0000
     0.0000   0.0000   0.0000   0.0000   0.0000   0.0000   0.0000   0.0000

          k = 0.2800 0.0000 0.0000 ( 10351 PWs)   bands (ev):

   -19.6891 -15.2592  -8.0485  -8.0485   0.9577   0.9577   1.5610   3.1785
     3.1785   3.2337   3.3681   4.1924   4.8180   4.8180   5.2150   6.3378

     occupation numbers 
     1.0000   1.0000   1.0000   1.0000   0.0000   0.0000   0.0000   0.0000
     0.0000   0.0000   0.0000   0.0000   0.0000   0.0000   0.0000   0.0000

          k = 0.2900 0.0000 0.0000 ( 10347 PWs)   bands (ev):

   -19.6192 -15.3666  -7.9266  -7.9266   0.6871   0.6871   1.6847   3.3079
     3.3079   3.3640   3.4913   4.3227   4.9477   4.9477   5.3384   6.5172

     occupation numbers 
     1.0000   1.0000   1.0000   1.0000   0.0000   0.0000   0.0000   0.0000
     0.0000   0.0000   0.0000   0.0000   0.0000   0.0000   0.0000   0.0000

          k = 0.3000 0.0000 0.0000 ( 10355 PWs)   bands (ev):

   -19.5472 -15.4752  -7.8006  -7.8006   0.4180   0.4180   1.8126   3.4419
     3.4419   3.4988   3.6187   4.4575   5.0820   5.0820   5.4660   6.6102

     occupation numbers 
     1.0000   1.0000   1.0000   1.0000   0.0000   0.0000   0.0000   0.0000
     0.0000   0.0000   0.0000   0.0000   0.0000   0.0000   0.0000   0.0000

          k = 0.3100 0.0000 0.0000 ( 10375 PWs)   bands (ev):

   -19.4730 -15.5850  -7.6704  -7.6704   0.1506   0.1506   1.9446   3.5804
     3.5804   3.6382   3.7502   4.5969   5.2208   5.2208   5.5976   6.6938

     occupation numbers 
     1.0000   1.0000   1.0000   1.0000   0.0000   0.0000   0.0000   0.0000
     0.0000   0.0000   0.0000   0.0000   0.0000   0.0000   0.0000   0.0000

          k = 0.3200 0.0000 0.0000 ( 10355 PWs)   bands (ev):

   -19.3968 -15.6957  -7.5360  -7.5360  -0.1148  -0.1148   2.0807   3.7235
     3.7235   3.7822   3.8858   4.7408   5.3642   5.3642   5.7333   6.7660

     occupation numbers 
     1.0000   1.0000   1.0000   1.0000   0.0000   0.0000   0.0000   0.0000
     0.0000   0.0000   0.0000   0.0000   0.0000   0.0000   0.0000   0.0000

          k = 0.3300 0.0000 0.0000 ( 10339 PWs)   bands (ev):

   -19.3185 -15.8073  -7.3975  -7.3975  -0.3780  -0.3780   2.2207   3.8711
     3.8711   3.9307   4.0255   4.8894   5.5121   5.5121   5.8730   6.8248

     occupation numbers 
     1.0000   1.0000   1.0000   1.0000   0.0000   0.0000   0.0000   0.0000
     0.0000   0.0000   0.0000   0.0000   0.0000   0.0000   0.0000   0.0000

          k = 0.3400 0.0000 0.0000 ( 10359 PWs)   bands (ev):

   -19.2382 -15.9194  -7.2549  -7.2549  -0.6389  -0.6389   2.3648   4.0232
     4.0232   4.0838   4.1691   5.0425   5.6646   5.6646   6.0167   6.8679

     occupation numbers 
     1.0000   1.0000   1.0000   1.0000   0.0000   0.0000   0.0000   0.0000
     0.0000   0.0000   0.0000   0.0000   0.0000   0.0000   0.0000   0.0000

          k = 0.3500 0.0000 0.0000 ( 10323 PWs)   bands (ev):

   -19.1560 -16.0321  -7.1082  -7.1082  -0.8974  -0.8974   2.5127   4.1798
     4.1798   4.2415   4.3167   5.2002   5.8216   5.8216   6.1642   6.8935

     occupation numbers 
     1.0000   1.0000   1.0000   1.0000   0.0000   0.0000   0.0000   0.0000
     0.0000   0.0000   0.0000   0.0000   0.0000   0.0000   0.0000   0.0000

          k = 0.3600 0.0000 0.0000 ( 10335 PWs)   bands (ev):

   -19.0718 -16.1452  -6.9574  -6.9574  -1.1532  -1.1532   2.6645   4.3410
     4.3410   4.4037   4.4681   5.3624   5.9831   5.9831   6.3152   6.8996

     occupation numbers 
     1.0000   1.0000   1.0000   1.0000   0.0000   0.0000   0.0000   0.0000
     0.0000   0.0000   0.0000   0.0000   0.0000   0.0000   0.0000   0.0000

          k = 0.3700 0.0000 0.0000 ( 10327 PWs)   bands (ev):

   -18.9857 -16.2586  -6.8026  -6.8026  -1.4062  -1.4062   2.8200   4.5067
     4.5067   4.5706   4.6235   5.5292   6.1492   6.1492   6.4690   6.8854

     occupation numbers 
     1.0000   1.0000   1.0000   1.0000   0.0000   0.0000   0.0000   0.0000
     0.0000   0.0000   0.0000   0.0000   0.0000   0.0000   0.0000   0.0000

          k = 0.3800 0.0000 0.0000 ( 10315 PWs)   bands (ev):

   -18.8979 -16.3720  -6.6437  -6.6437  -1.6564  -1.6564   2.9792   4.6769
     4.6769   4.7419   4.7825   5.7006   6.3198   6.3198   6.6227   6.8530

     occupation numbers 
     1.0000   1.0000   1.0000   1.0000   0.0000   0.0000   0.0000   0.0000
     0.0000   0.0000   0.0000   0.0000   0.0000   0.0000   0.0000   0.0000

          k = 0.3900 0.0000 0.0000 ( 10299 PWs)   bands (ev):

   -18.8082 -16.4855  -6.4809  -6.4809  -1.9035  -1.9035   3.1420   4.8516
     4.8516   4.9179   4.9453   5.8765   6.4950   6.4950   6.7353   6.8428

     occupation numbers 
     1.0000   1.0000   1.0000   1.0000   0.0000   0.0000   0.0000   0.0000
     0.0000   0.0000   0.0000   0.0000   0.0000   0.0000   0.0000   0.0000

          k = 0.4000 0.0000 0.0000 ( 10291 PWs)   bands (ev):

   -18.7168 -16.5988  -6.3141  -6.3141  -2.1475  -2.1475   3.3083   5.0308
     5.0308   5.0984   5.1116   6.0571   6.6746   6.6747   6.6863   6.9761

     occupation numbers 
     1.0000   1.0000   1.0000   1.0000   0.0000   0.0000   0.0000   0.0000
     0.0000   0.0000   0.0000   0.0000   0.0000   0.0000   0.0000   0.0000

          k = 0.4100 0.0000 0.0000 ( 10279 PWs)   bands (ev):

   -18.6238 -16.7119  -6.1434  -6.1434  -2.3882  -2.3882   3.4779   5.2146
     5.2146   5.2813   5.2835   6.2422   6.5879   6.8589   6.8589   7.1420

     occupation numbers 
     1.0000   1.0000   1.0000   1.0000   0.0000   0.0000   0.0000   0.0000
     0.0000   0.0000   0.0000   0.0000   0.0000   0.0000   0.0000   0.0000

          k = 0.4200 0.0000 0.0000 ( 10287 PWs)   bands (ev):

   -18.5292 -16.8246  -5.9690  -5.9690  -2.6255  -2.6255   3.6506   5.4028
     5.4028   5.4543   5.4732   6.4318   6.4681   7.0476   7.0476   7.3143

     occupation numbers 
     1.0000   1.0000   1.0000   1.0000   0.0000   0.0000   0.0000   0.0000
     0.0000   0.0000   0.0000   0.0000   0.0000   0.0000   0.0000   0.0000

          k = 0.4300 0.0000 0.0000 ( 10271 PWs)   bands (ev):

   -18.4331 -16.9367  -5.7908  -5.7908  -2.8593  -2.8593   3.8263   5.5956
     5.5956   5.6301   5.6674   6.3320   6.6261   7.2408   7.2409   7.4908

     occupation numbers 
     1.0000   1.0000   1.0000   1.0000   0.0000   0.0000   0.0000   0.0000
     0.0000   0.0000   0.0000   0.0000   0.0000   0.0000   0.0000   0.0000

          k = 0.4400 0.0000 0.0000 ( 10251 PWs)   bands (ev):

   -18.3357 -17.0482  -5.6090  -5.6090  -3.0893  -3.0893   4.0046   5.7928
     5.7928   5.8073   5.8662   6.1839   6.8249   7.4386   7.4386   7.6701

     occupation numbers 
     1.0000   1.0000   1.0000   1.0000   0.0000   0.0000   0.0000   0.0000
     0.0000   0.0000   0.0000   0.0000   0.0000   0.0000   0.0000   0.0000

          k = 0.4500 0.0000 0.0000 ( 10271 PWs)   bands (ev):

   -18.2371 -17.1587  -5.4239  -5.4239  -3.3152  -3.3152   4.1855   5.9594
     5.9946   5.9946   6.0530   6.0696   7.0282   7.6409   7.6409   7.8444

     occupation numbers 
     1.0000   1.0000   1.0000   1.0000   0.0000   0.0000   0.0000   0.0000
     0.0000   0.0000   0.0000   0.0000   0.0000   0.0000   0.0000   0.0000

          k = 0.4600 0.0000 0.0000 ( 10278 PWs)   bands (ev):

   -18.1376 -17.2680  -5.2361  -5.2361  -3.5366  -3.5366   4.3683   5.8404
     6.1875   6.2008   6.2008   6.2776   7.2362   7.7404   7.8473   7.8474

     occupation numbers 
     1.0000   1.0000   1.0000   1.0000   0.0000   0.0000   0.0000   0.0000
     0.0000   0.0000   0.0000   0.0000   0.0000   0.0000   0.0000   0.0000

          k = 0.4700 0.0000 0.0000 ( 10254 PWs)   bands (ev):

   -18.0378 -17.3755  -5.0464  -5.0464  -3.7524  -3.7524   4.5528   5.6672
     6.3725   6.4115   6.4116   6.4901   7.4487   7.5432   7.7701   7.7707

     occupation numbers 
     1.0000   1.0000   1.0000   1.0000   0.0000   0.0000   0.0000   0.0000
     0.0000   0.0000   0.0000   0.0000   0.0000   0.0000   0.0000   0.0000

          k = 0.4800 0.0000 0.0000 ( 10238 PWs)   bands (ev):

   -17.9391 -17.4796  -4.8579  -4.8579  -3.9595  -3.9595   4.7380   5.4879
     6.5617   6.6267   6.6267   6.7072   7.3455   7.5326   7.5328   7.6217

     occupation numbers 
     1.0000   1.0000   1.0000   1.0000   0.0000   0.0000   0.0000   0.0000
     0.0000   0.0000   0.0000   0.0000   0.0000   0.0000   0.0000   0.0000

          k = 0.4900 0.0000 0.0000 ( 10254 PWs)   bands (ev):

   -17.8474 -17.5746  -4.6819  -4.6819  -4.1467  -4.1467   4.9220   5.3068
     6.7525   6.8462   6.8462   6.9288   7.1497   7.2998   7.2998   7.3860

     occupation numbers 
     1.0000   1.0000   1.0000   1.0000   0.0000   0.0000   0.0000   0.0000
     0.0000   0.0000   0.0000   0.0000   0.0000   0.0000   0.0000   0.0000

          k =-0.5000 0.0000 0.0000 ( 10242 PWs)   bands (ev):

   -17.7964 -17.6267  -4.5841  -4.5841  -4.2483  -4.2483   5.0675   5.1622
     6.9144   6.9862   7.0571   7.0571   7.0845   7.0845   7.1509   7.1593

     occupation numbers 
     1.0000   1.0000   1.0000   1.0000   0.0000   0.0000   0.0000   0.0000
     0.0000   0.0000   0.0000   0.0000   0.0000   0.0000   0.0000   0.0000

     highest occupied, lowest unoccupied level (ev):    -4.5841   -4.2483

!    total energy              =     -36.74406377 Ry

     total all-electron energy =      -152.272259 Ry
     estimated scf accuracy    <          8.1E-09 Ry

     The total energy is the sum of the following terms:
     one-electron contribution =     -65.67584119 Ry
     hartree contribution      =      33.79770130 Ry
     xc contribution           =      -9.08741997 Ry
     ewald contribution        =      16.56241291 Ry
     one-center paw contrib.   =     -12.34091683 Ry
      -> PAW hartree energy AE =       9.67552797 Ry
      -> PAW hartree energy PS =      -9.66654461 Ry
      -> PAW xc energy AE      =     -10.72500326 Ry
      -> PAW xc energy PS      =       4.54555990 Ry
      -> total E_H with PAW    =      33.80668467 Ry
      -> total E_XC with PAW   =     -15.26686334 Ry

     convergence has been achieved in   1 iterations

     negative rho (up, down):  1.845E-04 0.000E+00

     Forces acting on atoms (cartesian axes, Ry/au):

     atom    1 type  1   force =    -0.00006486    0.00000000    0.00000000
     atom    2 type  1   force =     0.00006486    0.00000000    0.00000000
     The non-local contrib.  to forces
     atom    1 type  1   force =    -0.07503721    0.00000000    0.00000000
     atom    2 type  1   force =     0.07503381    0.00000000    0.00000000
     The ionic contribution  to forces
     atom    1 type  1   force =    -0.33560423    0.00000000    0.00000000
     atom    2 type  1   force =     0.33560423    0.00000000    0.00000000
     The local contribution  to forces
     atom    1 type  1   force =     0.40713926    0.00000000    0.00000000
     atom    2 type  1   force =    -0.40713520    0.00000000    0.00000000
     The core correction contribution to forces
     atom    1 type  1   force =     0.00326284   -0.00000000   -0.00000000
     atom    2 type  1   force =    -0.00339872   -0.00000000   -0.00000000
     The Hubbard contrib.    to forces
     atom    1 type  1   force =     0.00000000    0.00000000    0.00000000
     atom    2 type  1   force =     0.00000000    0.00000000    0.00000000
     The SCF correction term to forces
     atom    1 type  1   force =     0.00010836    0.00000000    0.00000000
     atom    2 type  1   force =    -0.00010538    0.00000000    0.00000000

     Total force =     0.000092     Total SCF correction =     0.000151
     SCF correction compared to forces is large: reduce conv_thr to get better values


     Computing stress (Cartesian axis) and pressure


     negative rho (up, down):  1.845E-04 0.000E+00
          total   stress  (Ry/bohr**3)                   (kbar)     P=       -0.05
  -0.00000016   0.00000000   0.00000000           -0.02        0.00        0.00
   0.00000000  -0.00000045   0.00000000            0.00       -0.07        0.00
   0.00000000   0.00000000  -0.00000045            0.00        0.00       -0.07

     kinetic stress (kbar)    624.33      0.00      0.00
                                0.00    907.48      0.00
                                0.00      0.00    907.48

     local   stress (kbar)  -7179.23     -0.00     -0.00
                               -0.00    234.19     -0.00
                               -0.00     -0.00    234.19

     nonloc. stress (kbar)    232.54      0.00      0.00
                                0.00    185.67      0.00
                                0.00      0.00    185.67

     hartree stress (kbar)   2870.45     -0.00     -0.00
                               -0.00      0.62      0.00
                               -0.00      0.00      0.62

     exc-cor stress (kbar)     -4.17      0.00      0.00
                                0.00    -16.89     -0.00
                                0.00     -0.00    -16.89

     corecor stress (kbar)   -194.49     -0.00     -0.00
                               -0.00   -189.49     -0.00
                               -0.00     -0.00   -189.49

     ewald   stress (kbar)   3650.55     -0.00     -0.00
                               -0.00  -1121.64      0.00
                               -0.00      0.00  -1121.64

     hubbard stress (kbar)      0.00      0.00      0.00
                                0.00      0.00      0.00
                                0.00      0.00      0.00

     DFT-D   stress (kbar)      0.00      0.00      0.00
                                0.00      0.00      0.00
                                0.00      0.00      0.00

     XDM     stress (kbar)      0.00      0.00      0.00
                                0.00      0.00      0.00
                                0.00      0.00      0.00

     dft-nl  stress (kbar)      0.00      0.00      0.00
                                0.00      0.00      0.00
                                0.00      0.00      0.00

     TS-vdW  stress (kbar)      0.00      0.00      0.00
                                0.00      0.00      0.00
                                0.00      0.00      0.00


     Energy error            =      2.7E-09
     Gradient error          =      6.5E-05

     number of scf cycles    =   2
     number of bfgs steps    =   1

     energy   old            =     -36.7440637776 Ry
     energy   new            =     -36.7440637749 Ry

     CASE: energy  _new > energy  _old

     new trust radius        =       0.0000058033 bohr

     trust_radius < trust_radius_min

     resetting bfgs history

     new conv_thr            =       0.0000000100 Ry


ATOMIC_POSITIONS (angstrom)
C             0.0003781605        5.0000000000        5.0000000000
C             1.2643667345        5.0000000000        5.0000000000



     Writing output data file ./outdir/carbyne.save/
     NEW-OLD atomic charge density approx. for the potential

     Check: negative core charge=   -0.000002

     negative rho (up, down):  1.845E-04 0.000E+00

     total cpu time spent up to now is       20.8 secs

     Self-consistent Calculation

     iteration #  1     ecut=    50.00 Ry     beta= 0.70
     Davidson diagonalization with overlap
     ethr =  1.00E-06,  avg # of iterations =  1.0

     Threshold (ethr) on eigenvalues was too large:
     Diagonalizing with lowered threshold

     Davidson diagonalization with overlap
     ethr =  2.98E-10,  avg # of iterations =  1.0

     negative rho (up, down):  1.845E-04 0.000E+00

     total cpu time spent up to now is       22.4 secs

     total energy              =     -36.74406377 Ry
     estimated scf accuracy    <       0.00000003 Ry

     iteration #  2     ecut=    50.00 Ry     beta= 0.70
     Davidson diagonalization with overlap
     ethr =  3.18E-10,  avg # of iterations =  2.0

     negative rho (up, down):  1.845E-04 0.000E+00

     total cpu time spent up to now is       23.5 secs

     total energy              =     -36.74406377 Ry
     estimated scf accuracy    <       0.00000008 Ry

     iteration #  3     ecut=    50.00 Ry     beta= 0.70
     Davidson diagonalization with overlap
     ethr =  3.18E-10,  avg # of iterations =  1.6

     negative rho (up, down):  1.845E-04 0.000E+00

     total cpu time spent up to now is       24.5 secs

     End of self-consistent calculation

          k = 0.0000 0.0000 0.0000 ( 10379 PWs)   bands (ev):

   -20.6781 -13.4757  -9.7334  -9.7334  -0.1569   1.3960   1.3960   1.4422
     1.6584   2.4009   3.0326   3.0326   3.5053   4.1741   4.5464   5.9452

     occupation numbers 
     1.0000   1.0000   1.0000   1.0000   0.0000   0.0000   0.0000   0.0000
     0.0000   0.0000   0.0000   0.0000   0.0000   0.0000   0.0000   0.0000

          k = 0.0100 0.0000 0.0000 ( 10379 PWs)   bands (ev):

   -20.6768 -13.4785  -9.7312  -9.7312  -0.1547   1.3983   1.3983   1.4444
     1.6605   2.4032   3.0349   3.0349   3.5075   4.1778   4.5486   5.9482

     occupation numbers 
     1.0000   1.0000   1.0000   1.0000   0.0000   0.0000   0.0000   0.0000
     0.0000   0.0000   0.0000   0.0000   0.0000   0.0000   0.0000   0.0000

          k = 0.0200 0.0000 0.0000 ( 10387 PWs)   bands (ev):

   -20.6729 -13.4867  -9.7248  -9.7248  -0.1481   1.4051   1.4051   1.4513
     1.6671   2.4100   3.0417   3.0417   3.5141   4.1890   4.5555   5.9543

     occupation numbers 
     1.0000   1.0000   1.0000   1.0000   0.0000   0.0000   0.0000   0.0000
     0.0000   0.0000   0.0000   0.0000   0.0000   0.0000   0.0000   0.0000

          k = 0.0300 0.0000 0.0000 ( 10379 PWs)   bands (ev):

   -20.6664 -13.5003  -9.7140  -9.7140  -0.1371   1.4165   1.4165   1.4627
     1.6781   2.4215   3.0531   3.0531   3.5250   4.2077   4.5669   5.9658

     occupation numbers 
     1.0000   1.0000   1.0000   1.0000   0.0000   0.0000   0.0000   0.0000
     0.0000   0.0000   0.0000   0.0000   0.0000   0.0000   0.0000   0.0000

          k = 0.0400 0.0000 0.0000 ( 10355 PWs)   bands (ev):

   -20.6574 -13.5194  -9.6989  -9.6989  -0.1216   1.4324   1.4324   1.4787
     1.6935   2.4375   3.0690   3.0690   3.5404   4.2338   4.5829   5.9828

     occupation numbers 
     1.0000   1.0000   1.0000   1.0000   0.0000   0.0000   0.0000   0.0000
     0.0000   0.0000   0.0000   0.0000   0.0000   0.0000   0.0000   0.0000

          k = 0.0500 0.0000 0.0000 ( 10355 PWs)   bands (ev):

   -20.6457 -13.5438  -9.6794  -9.6794  -0.1018   1.4529   1.4529   1.4993
     1.7132   2.4580   3.0895   3.0895   3.5601   4.2672   4.6035   6.0026

     occupation numbers 
     1.0000   1.0000   1.0000   1.0000   0.0000   0.0000   0.0000   0.0000
     0.0000   0.0000   0.0000   0.0000   0.0000   0.0000   0.0000   0.0000

          k = 0.0600 0.0000 0.0000 ( 10339 PWs)   bands (ev):

   -20.6315 -13.5734  -9.6557  -9.6557  -0.0775   1.4779   1.4779   1.5244
     1.7373   2.4832   3.1146   3.1146   3.5842   4.3077   4.6286   6.0276

     occupation numbers 
     1.0000   1.0000   1.0000   1.0000   0.0000   0.0000   0.0000   0.0000
     0.0000   0.0000   0.0000   0.0000   0.0000   0.0000   0.0000   0.0000

          k = 0.0700 0.0000 0.0000 ( 10347 PWs)   bands (ev):

   -20.6148 -13.6082  -9.6277  -9.6277  -0.0489   1.5074   1.5074   1.5541
     1.7658   2.5129   3.1442   3.1442   3.6127   4.3552   4.6583   6.0572

     occupation numbers 
     1.0000   1.0000   1.0000   1.0000   0.0000   0.0000   0.0000   0.0000
     0.0000   0.0000   0.0000   0.0000   0.0000   0.0000   0.0000   0.0000

          k = 0.0800 0.0000 0.0000 ( 10335 PWs)   bands (ev):

   -20.5954 -13.6480  -9.5953  -9.5953  -0.0158   1.5415   1.5415   1.5884
     1.7987   2.5471   3.1783   3.1783   3.6455   4.4096   4.6926   5.9921

     occupation numbers 
     1.0000   1.0000   1.0000   1.0000   0.0000   0.0000   0.0000   0.0000
     0.0000   0.0000   0.0000   0.0000   0.0000   0.0000   0.0000   0.0000

          k = 0.0900 0.0000 0.0000 ( 10343 PWs)   bands (ev):

   -20.5735 -13.6928  -9.5586  -9.5586   0.0217   1.5802   1.5802   1.6273
     1.8360   2.5860   3.2170   3.2170   3.6828   4.4706   4.7314   5.8081

     occupation numbers 
     1.0000   1.0000   1.0000   1.0000   0.0000   0.0000   0.0000   0.0000
     0.0000   0.0000   0.0000   0.0000   0.0000   0.0000   0.0000   0.0000

          k = 0.1000 0.0000 0.0000 ( 10355 PWs)   bands (ev):

   -20.5491 -13.7424  -9.5177  -9.5177   0.0635   1.6233   1.6233   1.6707
     1.8776   2.6294   3.2603   3.2603   3.7244   4.5381   4.7749   5.6096

     occupation numbers 
     1.0000   1.0000   1.0000   1.0000   0.0000   0.0000   0.0000   0.0000
     0.0000   0.0000   0.0000   0.0000   0.0000   0.0000   0.0000   0.0000

          k = 0.1100 0.0000 0.0000 ( 10367 PWs)   bands (ev):

   -20.5221 -13.7966  -9.4724  -9.4724   0.1098   1.6711   1.6711   1.7187
     1.9237   2.6774   3.3081   3.3081   3.7703   4.6118   4.8228   5.3983

     occupation numbers 
     1.0000   1.0000   1.0000   1.0000   0.0000   0.0000   0.0000   0.0000
     0.0000   0.0000   0.0000   0.0000   0.0000   0.0000   0.0000   0.0000

          k = 0.1200 0.0000 0.0000 ( 10367 PWs)   bands (ev):

   -20.4926 -13.8553  -9.4228  -9.4228   0.1604   1.7233   1.7233   1.7712
     1.9740   2.7299   3.3604   3.3604   3.8207   4.6914   4.8754   5.1759

     occupation numbers 
     1.0000   1.0000   1.0000   1.0000   0.0000   0.0000   0.0000   0.0000
     0.0000   0.0000   0.0000   0.0000   0.0000   0.0000   0.0000   0.0000

          k = 0.1300 0.0000 0.0000 ( 10343 PWs)   bands (ev):

   -20.4606 -13.9183  -9.3689  -9.3689   0.2154   1.7802   1.7802   1.8284
     2.0288   2.7871   3.4173   3.4173   3.8754   4.7767   4.9437   4.9437

     occupation numbers 
     1.0000   1.0000   1.0000   1.0000   0.0000   0.0000   0.0000   0.0000
     0.0000   0.0000   0.0000   0.0000   0.0000   0.0000   0.0000   0.0000

          k = 0.1400 0.0000 0.0000 ( 10343 PWs)   bands (ev):

   -20.4261 -13.9855  -9.3108  -9.3108   0.2748   1.8415   1.8415   1.8901
     2.0879   2.8488   3.4787   3.4787   3.9345   4.7031   4.7031   4.8672

     occupation numbers 
     1.0000   1.0000   1.0000   1.0000   0.0000   0.0000   0.0000   0.0000
     0.0000   0.0000   0.0000   0.0000   0.0000   0.0000   0.0000   0.0000

          k = 0.1500 0.0000 0.0000 ( 10351 PWs)   bands (ev):

   -20.3891 -14.0567  -9.2483  -9.2483   0.3386   1.9074   1.9074   1.9563
     2.1513   2.9150   3.5446   3.5446   3.9979   4.4554   4.4554   4.9628

     occupation numbers 
     1.0000   1.0000   1.0000   1.0000   0.0000   0.0000   0.0000   0.0000
     0.0000   0.0000   0.0000   0.0000   0.0000   0.0000   0.0000   0.0000

          k = 0.1600 0.0000 0.0000 ( 10347 PWs)   bands (ev):

   -20.3496 -14.1317  -9.1816  -9.1816   0.4067   1.9778   1.9778   2.0272
     2.2191   2.9859   3.6150   3.6150   4.0657   4.2018   4.2018   5.0628

     occupation numbers 
     1.0000   1.0000   1.0000   1.0000   0.0000   0.0000   0.0000   0.0000
     0.0000   0.0000   0.0000   0.0000   0.0000   0.0000   0.0000   0.0000

          k = 0.1700 0.0000 0.0000 ( 10371 PWs)   bands (ev):

   -20.3076 -14.2103  -9.1105  -9.1105   0.4792   2.0528   2.0528   2.1026
     2.2912   3.0613   3.6891   3.6891   3.9438   3.9438   4.1378   5.1670

     occupation numbers 
     1.0000   1.0000   1.0000   1.0000   0.0000   0.0000   0.0000   0.0000
[...]
     0.0000   0.0000   0.0000   0.0000   0.0000   0.0000   0.0000   0.0000

          k = 0.2400 0.0000 0.0000 ( 10367 PWs)   bands (ev):

   -19.9465 -14.8455  -8.4940  -8.4940   1.1078   2.0493   2.0493   2.7069
     2.7069   2.7584   2.9169   3.7171   4.3446   4.3446   4.7635   5.8625

     occupation numbers 
     1.0000   1.0000   1.0000   1.0000   0.0000   0.0000   0.0000   0.0000
     0.0000   0.0000   0.0000   0.0000   0.0000   0.0000   0.0000   0.0000

          k = 0.2500 0.0000 0.0000 ( 10359 PWs)   bands (ev):

   -19.8855 -14.9462  -8.3889  -8.3889   1.2148   1.7758   1.7758   2.8178
     2.8178   2.8704   3.0233   3.8291   4.4561   4.4561   4.8701   5.9745

     occupation numbers 
     1.0000   1.0000   1.0000   1.0000   0.0000   0.0000   0.0000   0.0000
     0.0000   0.0000   0.0000   0.0000   0.0000   0.0000   0.0000   0.0000

          k = 0.2600 0.0000 0.0000 ( 10367 PWs)   bands (ev):

   -19.8223 -15.0488  -8.2796  -8.2796   1.3260   1.5024   1.5024   2.9334
     2.9334   2.9869   3.1340   3.9456   4.5722   4.5722   4.9808   6.1988

     occupation numbers 
     1.0000   1.0000   1.0000   1.0000   0.0000   0.0000   0.0000   0.0000
     0.0000   0.0000   0.0000   0.0000   0.0000   0.0000   0.0000   0.0000

          k = 0.2700 0.0000 0.0000 ( 10351 PWs)   bands (ev):

   -19.7568 -15.1532  -8.1661  -8.1661   1.2296   1.2296   1.4414   3.0537
     3.0537   3.1081   3.2490   4.0667   4.6928   4.6928   5.0958   6.2121

     occupation numbers 
     1.0000   1.0000   1.0000   1.0000   0.0000   0.0000   0.0000   0.0000
     0.0000   0.0000   0.0000   0.0000   0.0000   0.0000   0.0000   0.0000

          k = 0.2800 0.0000 0.0000 ( 10351 PWs)   bands (ev):

   -19.6891 -15.2591  -8.0485  -8.0485   0.9577   0.9577   1.5610   3.1785
     3.1785   3.2337   3.3681   4.1924   4.8180   4.8180   5.2150   6.3378

     occupation numbers 
     1.0000   1.0000   1.0000   1.0000   0.0000   0.0000   0.0000   0.0000
     0.0000   0.0000   0.0000   0.0000   0.0000   0.0000   0.0000   0.0000

          k = 0.2900 0.0000 0.0000 ( 10347 PWs)   bands (ev):

   -19.6192 -15.3665  -7.9266  -7.9266   0.6871   0.6871   1.6847   3.3080
     3.3080   3.3640   3.4913   4.3227   4.9477   4.9477   5.3384   6.5172

     occupation numbers 
     1.0000   1.0000   1.0000   1.0000   0.0000   0.0000   0.0000   0.0000
     0.0000   0.0000   0.0000   0.0000   0.0000   0.0000   0.0000   0.0000

          k = 0.3000 0.0000 0.0000 ( 10355 PWs)   bands (ev):

   -19.5472 -15.4752  -7.8005  -7.8005   0.4180   0.4180   1.8126   3.4419
     3.4419   3.4988   3.6187   4.4575   5.0820   5.0820   5.4660   6.6102

     occupation numbers 
     1.0000   1.0000   1.0000   1.0000   0.0000   0.0000   0.0000   0.0000
     0.0000   0.0000   0.0000   0.0000   0.0000   0.0000   0.0000   0.0000

          k = 0.3100 0.0000 0.0000 ( 10375 PWs)   bands (ev):

   -19.4730 -15.5849  -7.6703  -7.6703   0.1507   0.1507   1.9446   3.5804
     3.5804   3.6382   3.7502   4.5969   5.2209   5.2209   5.5976   6.6938

     occupation numbers 
     1.0000   1.0000   1.0000   1.0000   0.0000   0.0000   0.0000   0.0000
     0.0000   0.0000   0.0000   0.0000   0.0000   0.0000   0.0000   0.0000

          k = 0.3200 0.0000 0.0000 ( 10355 PWs)   bands (ev):

   -19.3968 -15.6957  -7.5360  -7.5360  -0.1147  -0.1147   2.0807   3.7235
     3.7235   3.7822   3.8858   4.7409   5.3642   5.3642   5.7333   6.7660

     occupation numbers 
     1.0000   1.0000   1.0000   1.0000   0.0000   0.0000   0.0000   0.0000
     0.0000   0.0000   0.0000   0.0000   0.0000   0.0000   0.0000   0.0000

          k = 0.3300 0.0000 0.0000 ( 10339 PWs)   bands (ev):

   -19.3185 -15.8072  -7.3975  -7.3975  -0.3780  -0.3780   2.2207   3.8711
     3.8711   3.9307   4.0255   4.8894   5.5121   5.5121   5.8730   6.8248

     occupation numbers 
     1.0000   1.0000   1.0000   1.0000   0.0000   0.0000   0.0000   0.0000
     0.0000   0.0000   0.0000   0.0000   0.0000   0.0000   0.0000   0.0000

          k = 0.3400 0.0000 0.0000 ( 10359 PWs)   bands (ev):

   -19.2382 -15.9194  -7.2549  -7.2549  -0.6389  -0.6389   2.3648   4.0232
     4.0232   4.0838   4.1691   5.0425   5.6646   5.6646   6.0167   6.8679

     occupation numbers 
     1.0000   1.0000   1.0000   1.0000   0.0000   0.0000   0.0000   0.0000
     0.0000   0.0000   0.0000   0.0000   0.0000   0.0000   0.0000   0.0000

          k = 0.3500 0.0000 0.0000 ( 10323 PWs)   bands (ev):

   -19.1560 -16.0321  -7.1082  -7.1082  -0.8973  -0.8973   2.5127   4.1798
     4.1798   4.2415   4.3167   5.2002   5.8216   5.8216   6.1641   6.8935

     occupation numbers 
     1.0000   1.0000   1.0000   1.0000   0.0000   0.0000   0.0000   0.0000
     0.0000   0.0000   0.0000   0.0000   0.0000   0.0000   0.0000   0.0000

          k = 0.3600 0.0000 0.0000 ( 10335 PWs)   bands (ev):

   -19.0718 -16.1452  -6.9574  -6.9574  -1.1531  -1.1531   2.6645   4.3410
     4.3410   4.4037   4.4681   5.3624   5.9831   5.9831   6.3151   6.8996

     occupation numbers 
     1.0000   1.0000   1.0000   1.0000   0.0000   0.0000   0.0000   0.0000
     0.0000   0.0000   0.0000   0.0000   0.0000   0.0000   0.0000   0.0000

          k = 0.3700 0.0000 0.0000 ( 10327 PWs)   bands (ev):

   -18.9857 -16.2585  -6.8026  -6.8026  -1.4062  -1.4062   2.8200   4.5067
     4.5067   4.5706   4.6235   5.5292   6.1492   6.1492   6.4690   6.8855

     occupation numbers 
     1.0000   1.0000   1.0000   1.0000   0.0000   0.0000   0.0000   0.0000
     0.0000   0.0000   0.0000   0.0000   0.0000   0.0000   0.0000   0.0000

          k = 0.3800 0.0000 0.0000 ( 10315 PWs)   bands (ev):

   -18.8978 -16.3720  -6.6437  -6.6437  -1.6563  -1.6563   2.9793   4.6769
     4.6769   4.7419   4.7825   5.7006   6.3198   6.3198   6.6227   6.8530

     occupation numbers 
     1.0000   1.0000   1.0000   1.0000   0.0000   0.0000   0.0000   0.0000
     0.0000   0.0000   0.0000   0.0000   0.0000   0.0000   0.0000   0.0000

          k = 0.3900 0.0000 0.0000 ( 10299 PWs)   bands (ev):

   -18.8082 -16.4854  -6.4809  -6.4809  -1.9035  -1.9035   3.1420   4.8516
     4.8516   4.9179   4.9453   5.8766   6.4950   6.4950   6.7353   6.8429

     occupation numbers 
     1.0000   1.0000   1.0000   1.0000   0.0000   0.0000   0.0000   0.0000
     0.0000   0.0000   0.0000   0.0000   0.0000   0.0000   0.0000   0.0000

          k = 0.4000 0.0000 0.0000 ( 10291 PWs)   bands (ev):

   -18.7168 -16.5988  -6.3141  -6.3141  -2.1474  -2.1474   3.3083   5.0308
     5.0308   5.0984   5.1116   6.0571   6.6746   6.6746   6.6862   6.9762

     occupation numbers 
     1.0000   1.0000   1.0000   1.0000   0.0000   0.0000   0.0000   0.0000
     0.0000   0.0000   0.0000   0.0000   0.0000   0.0000   0.0000   0.0000

          k = 0.4100 0.0000 0.0000 ( 10279 PWs)   bands (ev):

   -18.6238 -16.7118  -6.1434  -6.1434  -2.3882  -2.3882   3.4779   5.2146
     5.2146   5.2813   5.2835   6.2422   6.5879   6.8589   6.8589   7.1420

     occupation numbers 
     1.0000   1.0000   1.0000   1.0000   0.0000   0.0000   0.0000   0.0000
     0.0000   0.0000   0.0000   0.0000   0.0000   0.0000   0.0000   0.0000

          k = 0.4200 0.0000 0.0000 ( 10287 PWs)   bands (ev):

   -18.5292 -16.8245  -5.9690  -5.9690  -2.6255  -2.6255   3.6506   5.4028
     5.4028   5.4543   5.4732   6.4318   6.4681   7.0476   7.0476   7.3143

     occupation numbers 
     1.0000   1.0000   1.0000   1.0000   0.0000   0.0000   0.0000   0.0000
     0.0000   0.0000   0.0000   0.0000   0.0000   0.0000   0.0000   0.0000

          k = 0.4300 0.0000 0.0000 ( 10271 PWs)   bands (ev):

   -18.4331 -16.9366  -5.7908  -5.7908  -2.8592  -2.8592   3.8263   5.5956
     5.5956   5.6301   5.6674   6.3320   6.6261   7.2408   7.2408   7.4908

     occupation numbers 
     1.0000   1.0000   1.0000   1.0000   0.0000   0.0000   0.0000   0.0000
     0.0000   0.0000   0.0000   0.0000   0.0000   0.0000   0.0000   0.0000

          k = 0.4400 0.0000 0.0000 ( 10251 PWs)   bands (ev):

   -18.3357 -17.0481  -5.6090  -5.6090  -3.0892  -3.0892   4.0046   5.7929
     5.7929   5.8073   5.8663   6.1839   6.8249   7.4386   7.4386   7.6701

     occupation numbers 
     1.0000   1.0000   1.0000   1.0000   0.0000   0.0000   0.0000   0.0000
     0.0000   0.0000   0.0000   0.0000   0.0000   0.0000   0.0000   0.0000

          k = 0.4500 0.0000 0.0000 ( 10271 PWs)   bands (ev):

   -18.2371 -17.1586  -5.4239  -5.4239  -3.3152  -3.3152   4.1855   5.9594
     5.9946   5.9946   6.0531   6.0696   7.0282   7.6409   7.6409   7.8444

     occupation numbers 
     1.0000   1.0000   1.0000   1.0000   0.0000   0.0000   0.0000   0.0000
     0.0000   0.0000   0.0000   0.0000   0.0000   0.0000   0.0000   0.0000

          k = 0.4600 0.0000 0.0000 ( 10278 PWs)   bands (ev):

   -18.1376 -17.2679  -5.2361  -5.2361  -3.5366  -3.5366   4.3683   5.8404
     6.1875   6.2008   6.2008   6.2776   7.2362   7.7404   7.8473   7.8474

     occupation numbers 
     1.0000   1.0000   1.0000   1.0000   0.0000   0.0000   0.0000   0.0000
     0.0000   0.0000   0.0000   0.0000   0.0000   0.0000   0.0000   0.0000

          k = 0.4700 0.0000 0.0000 ( 10254 PWs)   bands (ev):

   -18.0378 -17.3754  -5.0464  -5.0464  -3.7523  -3.7523   4.5528   5.6672
     6.3725   6.4115   6.4115   6.4901   7.4487   7.5432   7.7700   7.7705

     occupation numbers 
     1.0000   1.0000   1.0000   1.0000   0.0000   0.0000   0.0000   0.0000
     0.0000   0.0000   0.0000   0.0000   0.0000   0.0000   0.0000   0.0000

          k = 0.4800 0.0000 0.0000 ( 10238 PWs)   bands (ev):

   -17.9392 -17.4794  -4.8580  -4.8580  -3.9594  -3.9594   4.7380   5.4879
     6.5617   6.6267   6.6267   6.7072   7.3455   7.5326   7.5328   7.6216

     occupation numbers 
     1.0000   1.0000   1.0000   1.0000   0.0000   0.0000   0.0000   0.0000
     0.0000   0.0000   0.0000   0.0000   0.0000   0.0000   0.0000   0.0000

          k = 0.4900 0.0000 0.0000 ( 10254 PWs)   bands (ev):

   -17.8476 -17.5744  -4.6820  -4.6820  -4.1466  -4.1466   4.9220   5.3068
     6.7525   6.8462   6.8462   6.9288   7.1497   7.2998   7.2998   7.3860

     occupation numbers 
     1.0000   1.0000   1.0000   1.0000   0.0000   0.0000   0.0000   0.0000
     0.0000   0.0000   0.0000   0.0000   0.0000   0.0000   0.0000   0.0000

          k =-0.5000 0.0000 0.0000 ( 10242 PWs)   bands (ev):

   -17.7967 -17.6263  -4.5843  -4.5843  -4.2480  -4.2480   5.0674   5.1623
     6.9144   6.9863   7.0570   7.0570   7.0845   7.0845   7.1509   7.1592

     occupation numbers 
     1.0000   1.0000   1.0000   1.0000   0.0000   0.0000   0.0000   0.0000
     0.0000   0.0000   0.0000   0.0000   0.0000   0.0000   0.0000   0.0000

     highest occupied, lowest unoccupied level (ev):    -4.5843   -4.2480

!    total energy              =     -36.74406378 Ry

     total all-electron energy =      -152.272259 Ry
     estimated scf accuracy    <          3.9E-13 Ry

     The total energy is the sum of the following terms:
     one-electron contribution =     -65.67585927 Ry
     hartree contribution      =      33.79771332 Ry
     xc contribution           =      -9.08742318 Ry
     ewald contribution        =      16.56242232 Ry
     one-center paw contrib.   =     -12.34091697 Ry
      -> PAW hartree energy AE =       9.67530566 Ry
      -> PAW hartree energy PS =      -9.66632249 Ry
      -> PAW xc energy AE      =     -10.72494971 Ry
      -> PAW xc energy PS      =       4.54550775 Ry
      -> total E_H with PAW    =      33.80669650 Ry
      -> total E_XC with PAW   =     -15.26686515 Ry

     convergence has been achieved in   4 iterations

     negative rho (up, down):  1.845E-04 0.000E+00

     Forces acting on atoms (cartesian axes, Ry/au):

     atom    1 type  1   force =     0.00000077    0.00000000    0.00000000
     atom    2 type  1   force =    -0.00000077    0.00000000    0.00000000
     The non-local contrib.  to forces
     atom    1 type  1   force =    -0.07510137    0.00000000    0.00000000
     atom    2 type  1   force =     0.07509667    0.00000000    0.00000000
     The ionic contribution  to forces
     atom    1 type  1   force =    -0.33586965    0.00000000    0.00000000
     atom    2 type  1   force =     0.33586965    0.00000000    0.00000000
     The local contribution  to forces
     atom    1 type  1   force =     0.40763997    0.00000000    0.00000000
     atom    2 type  1   force =    -0.40762838    0.00000000    0.00000000
     The core correction contribution to forces
     atom    1 type  1   force =     0.00326728   -0.00000000   -0.00000000
     atom    2 type  1   force =    -0.00340303   -0.00000000   -0.00000000
     The Hubbard contrib.    to forces
     atom    1 type  1   force =     0.00000000    0.00000000    0.00000000
     atom    2 type  1   force =     0.00000000    0.00000000    0.00000000
     The SCF correction term to forces
     atom    1 type  1   force =     0.00000013    0.00000000    0.00000000
     atom    2 type  1   force =    -0.00000009   -0.00000000    0.00000000

     Total force =     0.000001     Total SCF correction =     0.000000
     SCF correction compared to forces is large: reduce conv_thr to get better values


     Computing stress (Cartesian axis) and pressure


     negative rho (up, down):  1.845E-04 0.000E+00
          total   stress  (Ry/bohr**3)                   (kbar)     P=       -0.05
  -0.00000015   0.00000000   0.00000000           -0.02        0.00        0.00
   0.00000000  -0.00000046   0.00000000            0.00       -0.07        0.00
   0.00000000   0.00000000  -0.00000046            0.00        0.00       -0.07

     kinetic stress (kbar)    624.33      0.00      0.00
                                0.00    907.48      0.00
                                0.00      0.00    907.48

     local   stress (kbar)  -7179.23      0.00     -0.00
                                0.00    234.19      0.00
                               -0.00      0.00    234.19

     nonloc. stress (kbar)    232.54      0.00      0.00
                                0.00    185.67      0.00
                                0.00      0.00    185.67

     hartree stress (kbar)   2870.45      0.00     -0.00
                                0.00      0.62     -0.00
                               -0.00     -0.00      0.62

     exc-cor stress (kbar)     -4.17      0.00     -0.00
                                0.00    -16.89     -0.00
                               -0.00     -0.00    -16.89

     corecor stress (kbar)   -194.49     -0.00     -0.00
                               -0.00   -189.49      0.00
                               -0.00     -0.00   -189.49

     ewald   stress (kbar)   3650.55      0.00      0.00
                                0.00  -1121.64     -0.00
                                0.00     -0.00  -1121.64

     hubbard stress (kbar)      0.00      0.00      0.00
                                0.00      0.00      0.00
                                0.00      0.00      0.00

     DFT-D   stress (kbar)      0.00      0.00      0.00
                                0.00      0.00      0.00
                                0.00      0.00      0.00

     XDM     stress (kbar)      0.00      0.00      0.00
                                0.00      0.00      0.00
                                0.00      0.00      0.00

     dft-nl  stress (kbar)      0.00      0.00      0.00
                                0.00      0.00      0.00
                                0.00      0.00      0.00

     TS-vdW  stress (kbar)      0.00      0.00      0.00
                                0.00      0.00      0.00
                                0.00      0.00      0.00


     Energy error            =      4.9E-10
     Gradient error          =      7.7E-07

     bfgs converged in   4 scf cycles and   2 bfgs steps
     (criteria: energy <  1.0E-06 Ry, force <  1.0E-05 Ry/Bohr)

     End of BFGS Geometry Optimization

     Final energy   =     -36.7440637785 Ry

     File ./outdir/carbyne.bfgs deleted, as requested
Begin final coordinates

ATOMIC_POSITIONS (angstrom)
C             0.0003855816        5.0000000000        5.0000000000
C             1.2643593134        5.0000000000        5.0000000000
End final coordinates



     Writing output data file ./outdir/carbyne.save/
 
     init_run     :      2.78s CPU      2.45s WALL (       1 calls)
     electrons    :     39.69s CPU     20.91s WALL (       4 calls)
     update_pot   :      3.24s CPU      1.64s WALL (       3 calls)
     forces       :      4.27s CPU      2.21s WALL (       4 calls)
     stress       :      6.79s CPU      3.44s WALL (       4 calls)

     Called by init_run:
     wfcinit      :      0.68s CPU      0.64s WALL (       1 calls)
     wfcinit:atom :      0.01s CPU      0.01s WALL (       2 calls)
     wfcinit:wfcr :      0.63s CPU      0.61s WALL (       2 calls)
     potinit      :      0.93s CPU      0.56s WALL (       1 calls)
     hinit0       :      0.85s CPU      1.02s WALL (       1 calls)

     Called by electrons:
     c_bands      :     20.68s CPU     10.80s WALL (      18 calls)
     sum_band     :      6.97s CPU      3.66s WALL (      18 calls)
     v_of_rho     :     10.67s CPU      5.51s WALL (      19 calls)
     v_h          :      0.69s CPU      0.35s WALL (      19 calls)
     v_xc         :     14.03s CPU      7.22s WALL (      27 calls)
     newd         :      0.67s CPU      0.37s WALL (      19 calls)
     PAW_pot      :      0.50s CPU      0.27s WALL (      22 calls)
     mix_rho      :      1.27s CPU      0.66s WALL (      18 calls)

     Called by c_bands:
     init_us_2    :      0.27s CPU      0.15s WALL (      96 calls)
     cegterg      :     19.06s CPU      9.97s WALL (      36 calls)

     Called by sum_band:
     sum_band:wei :      0.02s CPU      0.01s WALL (      18 calls)
     sum_band:loo :      4.51s CPU      2.34s WALL (      18 calls)
     sum_band:buf :      0.09s CPU      0.04s WALL (      36 calls)
     sum_band:ini :      0.10s CPU      0.05s WALL (      36 calls)
     sum_band:cal :      0.10s CPU      0.05s WALL (      42 calls)
     sum_band:bec :      0.13s CPU      0.13s WALL (      42 calls)
     addusdens    :      0.52s CPU      0.29s WALL (      18 calls)
     addusd:skk   :      0.00s CPU      0.00s WALL (      18 calls)
     addusd:dgemm :      0.12s CPU      0.08s WALL (      18 calls)
     addusd:qvan2 :      0.10s CPU      0.05s WALL (      18 calls)

     Called by *egterg:
     cdiaghg      :      0.38s CPU      0.67s WALL (     142 calls)
     cegterg:over :      0.55s CPU      0.28s WALL (     118 calls)
     cegterg:upda :      0.50s CPU      0.28s WALL (     118 calls)
     cegterg:last :      0.93s CPU      0.47s WALL (      73 calls)
     h_psi        :     16.51s CPU      8.41s WALL (     156 calls)
     s_psi        :      0.23s CPU      0.11s WALL (     156 calls)
     g_psi        :      0.08s CPU      0.04s WALL (     118 calls)

     Called by h_psi:
     h_psi:calbec :      0.35s CPU      0.22s WALL (     156 calls)
     vloc_psi     :     15.72s CPU      7.95s WALL (     156 calls)
     add_vuspsi   :      0.26s CPU      0.14s WALL (     156 calls)

     General routines
     calbec       :      0.55s CPU      0.32s WALL (     238 calls)
     fft          :      4.92s CPU      2.98s WALL (     345 calls)
     ffts         :      0.19s CPU      0.11s WALL (      37 calls)
     fftw         :     14.98s CPU      7.57s WALL (    3474 calls)
     interpolate  :      0.63s CPU      0.34s WALL (      19 calls)
 
     Parallel routines

     PAW routines
     PAW_pot      :      0.50s CPU      0.27s WALL (      22 calls)
     PAW_symme    :      0.04s CPU      0.02s WALL (      40 calls)
 
     PWSCF        :     58.21s CPU     33.62s WALL

 
   This run was terminated on:  20:35:33  24Jun2021            

=------------------------------------------------------------------------------=
   JOB DONE.
=------------------------------------------------------------------------------=
