
     Program PWSCF v.6.7MaX starts on 24Jun2021 at 20:29: 3 

     This program is part of the open-source Quantum ESPRESSO suite
     for quantum simulation of materials; please cite
         "P. Giannozzi et al., J. Phys.:Condens. Matter 21 395502 (2009);
         "P. Giannozzi et al., J. Phys.:Condens. Matter 29 465901 (2017);
          URL http://www.quantum-espresso.org", 
     in publications or presentations arising from this work. More details at
     http://www.quantum-espresso.org/quote

     Parallel version (MPI & OpenMP), running on      56 processor cores
     Number of MPI processes:                28
     Threads/MPI process:                     2

     MPI processes distributed on     1 nodes
     K-points division:     npool     =      28
     Waiting for input...
     Reading input from standard input

     Current dimensions of program PWSCF are:
     Max number of different atomic species (ntypx) = 10
     Max number of k-points (npk) =  40000
     Max angular momentum in pseudopotentials (lmaxx) =  3
     file C.pbe-n-kjpaw_psl.1.0.0.UPF: wavefunction(s)  2S 2P renormalized

     Subspace diagonalization in iterative solution of the eigenvalue problem:
     a serial algorithm will be used

     Message from routine setup:
     using ibrav=0 with symmetry is DISCOURAGED, use correct ibrav instead
 
     G-vector sticks info
     --------------------
     sticks:   dense  smooth     PW     G-vecs:    dense   smooth      PW
     Sum        2927    1445    425               233967    82581   13359
 


     bravais-lattice index     =            0
     lattice parameter (alat)  =       4.8483  a.u.
     unit-cell volume          =    1731.3545 (a.u.)^3
     number of atoms/cell      =            2
     number of atomic types    =            1
     number of electrons       =         8.00
     number of Kohn-Sham states=           16
     kinetic-energy cutoff     =      50.0000  Ry
     charge density cutoff     =     400.0000  Ry
     scf convergence threshold =      1.0E-08
     mixing beta               =       0.7000
     number of iterations used =            8  plain     mixing
     energy convergence thresh.=      1.0E-06
     force convergence thresh. =      1.0E-05
     press convergence thresh. =      5.0E-02
     Exchange-correlation= SLA  PW   PBX  PBC
                           (   1   4   3   4   0   0   0)
     nstep                     =           50


     celldm(1)=   4.848286  celldm(2)=   0.000000  celldm(3)=   0.000000
     celldm(4)=   0.000000  celldm(5)=   0.000000  celldm(6)=   0.000000

     crystal axes: (cart. coord. in units of alat)
               a(1) = (   1.000000   0.000000   0.000000 )  
               a(2) = (   0.000000   3.897720   0.000000 )  
               a(3) = (   0.000000   0.000000   3.897720 )  

     reciprocal axes: (cart. coord. in units 2 pi/alat)
               b(1) = (  1.000000  0.000000  0.000000 )  
               b(2) = (  0.000000  0.256560  0.000000 )  
               b(3) = (  0.000000  0.000000  0.256560 )  


     PseudoPot. # 1 for C  read from file:
     ./pseudo/C.pbe-n-kjpaw_psl.1.0.0.UPF
     MD5 check sum: 6fec8efd722f5d988670a8dc528584a2
     Pseudo is Projector augmented-wave + core cor, Zval =  4.0
     Generated using "atomic" code by A. Dal Corso  v.5.1.2
     Shape of augmentation charge: PSQ
     Using radial grid of 1073 points,  4 beta functions with: 
                l(1) =   0
                l(2) =   0
                l(3) =   1
                l(4) =   1
     Q(r) pseudized with 0 coefficients 


     atomic species   valence    mass     pseudopotential
        C              4.00    12.01070     C ( 1.00)

      8 Sym. Ops. (no inversion) found


                                    s                        frac. trans.

      isym =  1     identity                                     

 cryst.   s( 1) = (     1          0          0      )
                  (     0          1          0      )
                  (     0          0          1      )

 cart.    s( 1) = (  1.0000000  0.0000000  0.0000000 )
                  (  0.0000000  1.0000000  0.0000000 )
                  (  0.0000000  0.0000000  1.0000000 )


      isym =  2     180 deg rotation - cart. axis [1,0,0]        

 cryst.   s( 2) = (     1          0          0      )
                  (     0         -1          0      )
                  (     0          0         -1      )

 cart.    s( 2) = (  1.0000000  0.0000000  0.0000000 )
                  (  0.0000000 -1.0000000  0.0000000 )
                  (  0.0000000  0.0000000 -1.0000000 )


      isym =  3      90 deg rotation - cart. axis [-1,0,0]       

 cryst.   s( 3) = (     1          0          0      )
                  (     0          0         -1      )
                  (     0          1          0      )

 cart.    s( 3) = (  1.0000000  0.0000000  0.0000000 )
                  (  0.0000000  0.0000000  1.0000000 )
                  (  0.0000000 -1.0000000  0.0000000 )


      isym =  4      90 deg rotation - cart. axis [1,0,0]        

 cryst.   s( 4) = (     1          0          0      )
                  (     0          0          1      )
                  (     0         -1          0      )

 cart.    s( 4) = (  1.0000000  0.0000000  0.0000000 )
                  (  0.0000000  0.0000000 -1.0000000 )
                  (  0.0000000  1.0000000  0.0000000 )


      isym =  5     inv. 180 deg rotation - cart. axis [0,0,1]   

 cryst.   s( 5) = (     1          0          0      )
                  (     0          1          0      )
                  (     0          0         -1      )

 cart.    s( 5) = (  1.0000000  0.0000000  0.0000000 )
                  (  0.0000000  1.0000000  0.0000000 )
                  (  0.0000000  0.0000000 -1.0000000 )


      isym =  6     inv. 180 deg rotation - cart. axis [0,1,0]   

 cryst.   s( 6) = (     1          0          0      )
                  (     0         -1          0      )
                  (     0          0          1      )

 cart.    s( 6) = (  1.0000000  0.0000000  0.0000000 )
                  (  0.0000000 -1.0000000  0.0000000 )
                  (  0.0000000  0.0000000  1.0000000 )


      isym =  7     inv. 180 deg rotation - cart. axis [0,1,1]   

 cryst.   s( 7) = (     1          0          0      )
                  (     0          0         -1      )
                  (     0         -1          0      )

 cart.    s( 7) = (  1.0000000  0.0000000  0.0000000 )
                  (  0.0000000  0.0000000 -1.0000000 )
                  (  0.0000000 -1.0000000  0.0000000 )


      isym =  8     inv. 180 deg rotation - cart. axis [0,1,-1]  

 cryst.   s( 8) = (     1          0          0      )
                  (     0          0          1      )
                  (     0          1          0      )

 cart.    s( 8) = (  1.0000000  0.0000000  0.0000000 )
                  (  0.0000000  0.0000000  1.0000000 )
                  (  0.0000000  1.0000000  0.0000000 )


   Cartesian axes

     site n.     atom                  positions (alat units)
         1           C   tau(   1) = (   0.0001136   1.9488599   1.9488599  )
         2           C   tau(   2) = (   0.4928602   1.9488599   1.9488599  )

   Crystallographic axes

     site n.     atom                  positions (cryst. coord.)
         1           C   tau(   1) = (  0.0001136  0.5000000  0.5000000  )
         2           C   tau(   2) = (  0.4928602  0.5000000  0.5000000  )

     number of k points=    51
                       cart. coord. in units 2pi/alat
        k(    1) = (   0.0000000   0.0000000   0.0000000), wk =   0.0200000
        k(    2) = (   0.0100000   0.0000000   0.0000000), wk =   0.0400000
        k(    3) = (   0.0200000   0.0000000   0.0000000), wk =   0.0400000
        k(    4) = (   0.0300000   0.0000000   0.0000000), wk =   0.0400000
        k(    5) = (   0.0400000   0.0000000   0.0000000), wk =   0.0400000
        k(    6) = (   0.0500000   0.0000000   0.0000000), wk =   0.0400000
        k(    7) = (   0.0600000   0.0000000   0.0000000), wk =   0.0400000
        k(    8) = (   0.0700000   0.0000000   0.0000000), wk =   0.0400000
        k(    9) = (   0.0800000   0.0000000   0.0000000), wk =   0.0400000
        k(   10) = (   0.0900000   0.0000000   0.0000000), wk =   0.0400000
        k(   11) = (   0.1000000   0.0000000   0.0000000), wk =   0.0400000
        k(   12) = (   0.1100000   0.0000000   0.0000000), wk =   0.0400000
        k(   13) = (   0.1200000   0.0000000   0.0000000), wk =   0.0400000
        k(   14) = (   0.1300000   0.0000000   0.0000000), wk =   0.0400000
        k(   15) = (   0.1400000   0.0000000   0.0000000), wk =   0.0400000
        k(   16) = (   0.1500000   0.0000000   0.0000000), wk =   0.0400000
        k(   17) = (   0.1600000   0.0000000   0.0000000), wk =   0.0400000
        k(   18) = (   0.1700000   0.0000000   0.0000000), wk =   0.0400000
        k(   19) = (   0.1800000   0.0000000   0.0000000), wk =   0.0400000
        k(   20) = (   0.1900000   0.0000000   0.0000000), wk =   0.0400000
        k(   21) = (   0.2000000   0.0000000   0.0000000), wk =   0.0400000
        k(   22) = (   0.2100000   0.0000000   0.0000000), wk =   0.0400000
        k(   23) = (   0.2200000   0.0000000   0.0000000), wk =   0.0400000
        k(   24) = (   0.2300000   0.0000000   0.0000000), wk =   0.0400000
        k(   25) = (   0.2400000   0.0000000   0.0000000), wk =   0.0400000
        k(   26) = (   0.2500000   0.0000000   0.0000000), wk =   0.0400000
        k(   27) = (   0.2600000   0.0000000   0.0000000), wk =   0.0400000
        k(   28) = (   0.2700000   0.0000000   0.0000000), wk =   0.0400000
        k(   29) = (   0.2800000   0.0000000   0.0000000), wk =   0.0400000
        k(   30) = (   0.2900000   0.0000000   0.0000000), wk =   0.0400000
        k(   31) = (   0.3000000   0.0000000   0.0000000), wk =   0.0400000
        k(   32) = (   0.3100000   0.0000000   0.0000000), wk =   0.0400000
        k(   33) = (   0.3200000   0.0000000   0.0000000), wk =   0.0400000
        k(   34) = (   0.3300000   0.0000000   0.0000000), wk =   0.0400000
        k(   35) = (   0.3400000   0.0000000   0.0000000), wk =   0.0400000
        k(   36) = (   0.3500000   0.0000000   0.0000000), wk =   0.0400000
        k(   37) = (   0.3600000   0.0000000   0.0000000), wk =   0.0400000
        k(   38) = (   0.3700000   0.0000000   0.0000000), wk =   0.0400000
        k(   39) = (   0.3800000   0.0000000   0.0000000), wk =   0.0400000
        k(   40) = (   0.3900000   0.0000000   0.0000000), wk =   0.0400000
        k(   41) = (   0.4000000   0.0000000   0.0000000), wk =   0.0400000
        k(   42) = (   0.4100000   0.0000000   0.0000000), wk =   0.0400000
        k(   43) = (   0.4200000   0.0000000   0.0000000), wk =   0.0400000
        k(   44) = (   0.4300000   0.0000000   0.0000000), wk =   0.0400000
        k(   45) = (   0.4400000   0.0000000   0.0000000), wk =   0.0400000
        k(   46) = (   0.4500000   0.0000000   0.0000000), wk =   0.0400000
        k(   47) = (   0.4600000   0.0000000   0.0000000), wk =   0.0400000
        k(   48) = (   0.4700000   0.0000000   0.0000000), wk =   0.0400000
        k(   49) = (   0.4800000   0.0000000   0.0000000), wk =   0.0400000
        k(   50) = (   0.4900000   0.0000000   0.0000000), wk =   0.0400000
        k(   51) = (  -0.5000000   0.0000000   0.0000000), wk =   0.0200000

                       cryst. coord.
        k(    1) = (   0.0000000   0.0000000   0.0000000), wk =   0.0200000
        k(    2) = (   0.0100000   0.0000000   0.0000000), wk =   0.0400000
        k(    3) = (   0.0200000   0.0000000   0.0000000), wk =   0.0400000
        k(    4) = (   0.0300000   0.0000000   0.0000000), wk =   0.0400000
        k(    5) = (   0.0400000   0.0000000   0.0000000), wk =   0.0400000
        k(    6) = (   0.0500000   0.0000000   0.0000000), wk =   0.0400000
        k(    7) = (   0.0600000   0.0000000   0.0000000), wk =   0.0400000
        k(    8) = (   0.0700000   0.0000000   0.0000000), wk =   0.0400000
        k(    9) = (   0.0800000   0.0000000   0.0000000), wk =   0.0400000
        k(   10) = (   0.0900000   0.0000000   0.0000000), wk =   0.0400000
        k(   11) = (   0.1000000   0.0000000   0.0000000), wk =   0.0400000
        k(   12) = (   0.1100000   0.0000000   0.0000000), wk =   0.0400000
        k(   13) = (   0.1200000   0.0000000   0.0000000), wk =   0.0400000
        k(   14) = (   0.1300000   0.0000000   0.0000000), wk =   0.0400000
        k(   15) = (   0.1400000   0.0000000   0.0000000), wk =   0.0400000
        k(   16) = (   0.1500000   0.0000000   0.0000000), wk =   0.0400000
        k(   17) = (   0.1600000   0.0000000   0.0000000), wk =   0.0400000
        k(   18) = (   0.1700000   0.0000000   0.0000000), wk =   0.0400000
        k(   19) = (   0.1800000   0.0000000   0.0000000), wk =   0.0400000
        k(   20) = (   0.1900000   0.0000000   0.0000000), wk =   0.0400000
        k(   21) = (   0.2000000   0.0000000   0.0000000), wk =   0.0400000
        k(   22) = (   0.2100000   0.0000000   0.0000000), wk =   0.0400000
        k(   23) = (   0.2200000   0.0000000   0.0000000), wk =   0.0400000
        k(   24) = (   0.2300000   0.0000000   0.0000000), wk =   0.0400000
        k(   25) = (   0.2400000   0.0000000   0.0000000), wk =   0.0400000
        k(   26) = (   0.2500000   0.0000000   0.0000000), wk =   0.0400000
        k(   27) = (   0.2600000   0.0000000   0.0000000), wk =   0.0400000
        k(   28) = (   0.2700000   0.0000000   0.0000000), wk =   0.0400000
        k(   29) = (   0.2800000   0.0000000   0.0000000), wk =   0.0400000
        k(   30) = (   0.2900000   0.0000000   0.0000000), wk =   0.0400000
        k(   31) = (   0.3000000   0.0000000   0.0000000), wk =   0.0400000
        k(   32) = (   0.3100000   0.0000000   0.0000000), wk =   0.0400000
        k(   33) = (   0.3200000   0.0000000   0.0000000), wk =   0.0400000
        k(   34) = (   0.3300000   0.0000000   0.0000000), wk =   0.0400000
        k(   35) = (   0.3400000   0.0000000   0.0000000), wk =   0.0400000
        k(   36) = (   0.3500000   0.0000000   0.0000000), wk =   0.0400000
        k(   37) = (   0.3600000   0.0000000   0.0000000), wk =   0.0400000
        k(   38) = (   0.3700000   0.0000000   0.0000000), wk =   0.0400000
        k(   39) = (   0.3800000   0.0000000   0.0000000), wk =   0.0400000
        k(   40) = (   0.3900000   0.0000000   0.0000000), wk =   0.0400000
        k(   41) = (   0.4000000   0.0000000   0.0000000), wk =   0.0400000
        k(   42) = (   0.4100000   0.0000000   0.0000000), wk =   0.0400000
        k(   43) = (   0.4200000   0.0000000   0.0000000), wk =   0.0400000
        k(   44) = (   0.4300000   0.0000000   0.0000000), wk =   0.0400000
        k(   45) = (   0.4400000   0.0000000   0.0000000), wk =   0.0400000
        k(   46) = (   0.4500000   0.0000000   0.0000000), wk =   0.0400000
        k(   47) = (   0.4600000   0.0000000   0.0000000), wk =   0.0400000
        k(   48) = (   0.4700000   0.0000000   0.0000000), wk =   0.0400000
        k(   49) = (   0.4800000   0.0000000   0.0000000), wk =   0.0400000
        k(   50) = (   0.4900000   0.0000000   0.0000000), wk =   0.0400000
        k(   51) = (  -0.5000000   0.0000000   0.0000000), wk =   0.0200000

     Dense  grid:   233967 G-vectors     FFT dimensions: (  32, 125, 125)

     Smooth grid:    82581 G-vectors     FFT dimensions: (  24,  90,  90)

     Dynamical RAM for                 wfc:       2.52 MB

     Dynamical RAM for     wfc (w. buffer):       7.57 MB

     Dynamical RAM for           str. fact:       3.57 MB

     Dynamical RAM for           local pot:       0.00 MB

     Dynamical RAM for          nlocal pot:       2.52 MB

     Dynamical RAM for                qrad:       0.92 MB

     Dynamical RAM for          rho,v,vnew:      22.15 MB

     Dynamical RAM for               rhoin:       7.38 MB

     Dynamical RAM for            rho*nmix:      57.12 MB

     Dynamical RAM for           G-vectors:      14.02 MB

     Dynamical RAM for          h,s,v(r/c):       0.05 MB

     Dynamical RAM for          <psi|beta>:       0.00 MB

     Dynamical RAM for                 psi:       5.05 MB

     Dynamical RAM for                hpsi:       5.05 MB

     Dynamical RAM for                spsi:       5.05 MB

     Dynamical RAM for      wfcinit/wfcrot:       5.05 MB

     Dynamical RAM for           addusdens:       9.18 MB

     Dynamical RAM for          addusforce:       7.78 MB

     Dynamical RAM for         addusstress:       8.10 MB

     Estimated static dynamical RAM per process >     141.47 MB

     Estimated max dynamical RAM per process >     156.67 MB

     Estimated total dynamical RAM >       4.28 GB

     Check: negative core charge=   -0.000002

     Initial potential from superposition of free atoms

     starting charge    7.99992, renormalised to    8.00000

     negative rho (up, down):  9.849E-05 0.000E+00
     Starting wfcs are    8 randomized atomic wfcs +    8 random wfcs
     Checking if some PAW data can be deallocated... 

     total cpu time spent up to now is        7.8 secs

     Self-consistent Calculation

     iteration #  1     ecut=    50.00 Ry     beta= 0.70
     Davidson diagonalization with overlap
     ethr =  1.00E-02,  avg # of iterations =  9.1

     negative rho (up, down):  1.441E-04 0.000E+00

     total cpu time spent up to now is       10.1 secs

     total energy              =     -36.68392692 Ry
     estimated scf accuracy    <       0.27321411 Ry

     iteration #  2     ecut=    50.00 Ry     beta= 0.70
     Davidson diagonalization with overlap
     ethr =  3.42E-03,  avg # of iterations =  2.1

     negative rho (up, down):  1.552E-04 0.000E+00

     total cpu time spent up to now is       11.2 secs

     total energy              =     -36.74245606 Ry
     estimated scf accuracy    <       0.01002708 Ry

     iteration #  3     ecut=    50.00 Ry     beta= 0.70
     Davidson diagonalization with overlap
     ethr =  1.25E-04,  avg # of iterations =  3.7

     negative rho (up, down):  1.807E-04 0.000E+00

     total cpu time spent up to now is       12.6 secs

     total energy              =     -36.74403745 Ry
     estimated scf accuracy    <       0.00022652 Ry

     iteration #  4     ecut=    50.00 Ry     beta= 0.70
     Davidson diagonalization with overlap
     c_bands:  1 eigenvalues not converged
     ethr =  2.83E-06,  avg # of iterations =  9.0

     negative rho (up, down):  1.823E-04 0.000E+00

     total cpu time spent up to now is       14.3 secs

     total energy              =     -36.74403451 Ry
     estimated scf accuracy    <       0.00016432 Ry

     iteration #  5     ecut=    50.00 Ry     beta= 0.70
     Davidson diagonalization with overlap
     ethr =  2.05E-06,  avg # of iterations =  2.1

     negative rho (up, down):  1.841E-04 0.000E+00

     total cpu time spent up to now is       15.5 secs

     total energy              =     -36.74406294 Ry
     estimated scf accuracy    <       0.00000268 Ry

     iteration #  6     ecut=    50.00 Ry     beta= 0.70
     Davidson diagonalization with overlap
     ethr =  3.35E-08,  avg # of iterations =  2.1

     negative rho (up, down):  1.845E-04 0.000E+00

     total cpu time spent up to now is       16.6 secs

     total energy              =     -36.74406371 Ry
     estimated scf accuracy    <       0.00000005 Ry

     iteration #  7     ecut=    50.00 Ry     beta= 0.70
     Davidson diagonalization with overlap
     ethr =  6.64E-10,  avg # of iterations =  2.4

     negative rho (up, down):  1.846E-04 0.000E+00

     total cpu time spent up to now is       17.6 secs

     End of self-consistent calculation

          k = 0.0000 0.0000 0.0000 ( 10379 PWs)   bands (ev):

   -20.6780 -13.4757  -9.7333  -9.7333  -0.1570   1.3959   1.3959   1.4421
     1.6583   2.4008   3.0325   3.0325   3.5053   4.1730   4.5463   5.9453

     occupation numbers 
     1.0000   1.0000   1.0000   1.0000   0.0000   0.0000   0.0000   0.0000
     0.0000   0.0000   0.0000   0.0000   0.0000   0.0000   0.0000   0.0000

          k = 0.0100 0.0000 0.0000 ( 10379 PWs)   bands (ev):

   -20.6767 -13.4784  -9.7311  -9.7311  -0.1548   1.3982   1.3982   1.4444
     1.6605   2.4031   3.0348   3.0348   3.5075   4.1767   4.5486   5.9484

     occupation numbers 
     1.0000   1.0000   1.0000   1.0000   0.0000   0.0000   0.0000   0.0000
     0.0000   0.0000   0.0000   0.0000   0.0000   0.0000   0.0000   0.0000

          k = 0.0200 0.0000 0.0000 ( 10387 PWs)   bands (ev):

   -20.6728 -13.4866  -9.7246  -9.7246  -0.1482   1.4050   1.4050   1.4512
     1.6671   2.4099   3.0417   3.0417   3.5140   4.1880   4.5555   5.9542

     occupation numbers 
     1.0000   1.0000   1.0000   1.0000   0.0000   0.0000   0.0000   0.0000
     0.0000   0.0000   0.0000   0.0000   0.0000   0.0000   0.0000   0.0000

          k = 0.0300 0.0000 0.0000 ( 10379 PWs)   bands (ev):

   -20.6663 -13.5003  -9.7138  -9.7138  -0.1371   1.4164   1.4164   1.4626
     1.6781   2.4214   3.0530   3.0530   3.5250   4.2067   4.5669   5.9659

     occupation numbers 
     1.0000   1.0000   1.0000   1.0000   0.0000   0.0000   0.0000   0.0000
     0.0000   0.0000   0.0000   0.0000   0.0000   0.0000   0.0000   0.0000

          k = 0.0400 0.0000 0.0000 ( 10355 PWs)   bands (ev):

   -20.6573 -13.5193  -9.6987  -9.6987  -0.1217   1.4323   1.4323   1.4786
     1.6934   2.4374   3.0690   3.0690   3.5403   4.2327   4.5829   5.9830

     occupation numbers 
     1.0000   1.0000   1.0000   1.0000   0.0000   0.0000   0.0000   0.0000
     0.0000   0.0000   0.0000   0.0000   0.0000   0.0000   0.0000   0.0000

          k = 0.0500 0.0000 0.0000 ( 10355 PWs)   bands (ev):

   -20.6457 -13.5437  -9.6793  -9.6793  -0.1019   1.4528   1.4528   1.4992
     1.7132   2.4579   3.0895   3.0895   3.5600   4.2661   4.6034   6.0023

     occupation numbers 
     1.0000   1.0000   1.0000   1.0000   0.0000   0.0000   0.0000   0.0000
     0.0000   0.0000   0.0000   0.0000   0.0000   0.0000   0.0000   0.0000

          k = 0.0600 0.0000 0.0000 ( 10339 PWs)   bands (ev):

   -20.6314 -13.5733  -9.6556  -9.6556  -0.0776   1.4778   1.4778   1.5243
     1.7373   2.4831   3.1145   3.1145   3.5841   4.3066   4.6286   6.0277

     occupation numbers 
     1.0000   1.0000   1.0000   1.0000   0.0000   0.0000   0.0000   0.0000
     0.0000   0.0000   0.0000   0.0000   0.0000   0.0000   0.0000   0.0000

          k = 0.0700 0.0000 0.0000 ( 10347 PWs)   bands (ev):

   -20.6147 -13.6081  -9.6275  -9.6275  -0.0489   1.5073   1.5073   1.5540
     1.7658   2.5128   3.1441   3.1441   3.6126   4.3541   4.6583   6.0573

     occupation numbers 
     1.0000   1.0000   1.0000   1.0000   0.0000   0.0000   0.0000   0.0000
     0.0000   0.0000   0.0000   0.0000   0.0000   0.0000   0.0000   0.0000

          k = 0.0800 0.0000 0.0000 ( 10335 PWs)   bands (ev):

   -20.5953 -13.6480  -9.5952  -9.5952  -0.0159   1.5414   1.5414   1.5883
     1.7987   2.5470   3.1783   3.1783   3.6455   4.4086   4.6925   5.9912

     occupation numbers 
     1.0000   1.0000   1.0000   1.0000   0.0000   0.0000   0.0000   0.0000
     0.0000   0.0000   0.0000   0.0000   0.0000   0.0000   0.0000   0.0000

          k = 0.0900 0.0000 0.0000 ( 10343 PWs)   bands (ev):

   -20.5734 -13.6928  -9.5585  -9.5585   0.0216   1.5801   1.5801   1.6272
     1.8360   2.5859   3.2170   3.2170   3.6827   4.4696   4.7314   5.8072

     occupation numbers 
     1.0000   1.0000   1.0000   1.0000   0.0000   0.0000   0.0000   0.0000
     0.0000   0.0000   0.0000   0.0000   0.0000   0.0000   0.0000   0.0000

          k = 0.1000 0.0000 0.0000 ( 10355 PWs)   bands (ev):

   -20.5490 -13.7423  -9.5175  -9.5175   0.0634   1.6232   1.6232   1.6706
     1.8776   2.6293   3.2602   3.2602   3.7243   4.5371   4.7748   5.6087

     occupation numbers 
     1.0000   1.0000   1.0000   1.0000   0.0000   0.0000   0.0000   0.0000
     0.0000   0.0000   0.0000   0.0000   0.0000   0.0000   0.0000   0.0000

          k = 0.1100 0.0000 0.0000 ( 10375 PWs)   bands (ev):

   -20.5220 -13.7965  -9.4723  -9.4723   0.1097   1.6710   1.6710   1.7186
     1.9236   2.6773   3.3080   3.3080   3.7703   4.6108   4.8228   5.3974

     occupation numbers 
     1.0000   1.0000   1.0000   1.0000   0.0000   0.0000   0.0000   0.0000
     0.0000   0.0000   0.0000   0.0000   0.0000   0.0000   0.0000   0.0000

          k = 0.1200 0.0000 0.0000 ( 10367 PWs)   bands (ev):

   -20.4925 -13.8553  -9.4227  -9.4227   0.1603   1.7232   1.7232   1.7711
     1.9740   2.7298   3.3604   3.3604   3.8206   4.6904   4.8753   5.1750

     occupation numbers 
     1.0000   1.0000   1.0000   1.0000   0.0000   0.0000   0.0000   0.0000
     0.0000   0.0000   0.0000   0.0000   0.0000   0.0000   0.0000   0.0000

          k = 0.1300 0.0000 0.0000 ( 10343 PWs)   bands (ev):

   -20.4605 -13.9183  -9.3688  -9.3688   0.2153   1.7801   1.7801   1.8282
     2.0287   2.7870   3.4173   3.4173   3.8754   4.7757   4.9428   4.9428

     occupation numbers 
     1.0000   1.0000   1.0000   1.0000   0.0000   0.0000   0.0000   0.0000
     0.0000   0.0000   0.0000   0.0000   0.0000   0.0000   0.0000   0.0000

          k = 0.1400 0.0000 0.0000 ( 10343 PWs)   bands (ev):

   -20.4260 -13.9855  -9.3106  -9.3106   0.2747   1.8414   1.8414   1.8899
     2.0878   2.8487   3.4787   3.4787   3.9344   4.7022   4.7022   4.8663

     occupation numbers 
     1.0000   1.0000   1.0000   1.0000   0.0000   0.0000   0.0000   0.0000
     0.0000   0.0000   0.0000   0.0000   0.0000   0.0000   0.0000   0.0000

          k = 0.1500 0.0000 0.0000 ( 10351 PWs)   bands (ev):

   -20.3890 -14.0567  -9.2482  -9.2482   0.3385   1.9073   1.9073   1.9562
     2.1513   2.9149   3.5446   3.5446   3.9978   4.4545   4.4545   4.9618

     occupation numbers 
     1.0000   1.0000   1.0000   1.0000   0.0000   0.0000   0.0000   0.0000
     0.0000   0.0000   0.0000   0.0000   0.0000   0.0000   0.0000   0.0000

          k = 0.1600 0.0000 0.0000 ( 10347 PWs)   bands (ev):

   -20.3495 -14.1316  -9.1814  -9.1814   0.4066   1.9777   1.9777   2.0270
     2.2191   2.9858   3.6149   3.6149   4.0656   4.2009   4.2009   5.0619

     occupation numbers 
     1.0000   1.0000   1.0000   1.0000   0.0000   0.0000   0.0000   0.0000
     0.0000   0.0000   0.0000   0.0000   0.0000   0.0000   0.0000   0.0000

          k = 0.1700 0.0000 0.0000 ( 10371 PWs)   bands (ev):

   -20.3075 -14.2102  -9.1104  -9.1104   0.4791   2.0526   2.0526   2.1025
     2.2912   3.0612   3.6890   3.6890   3.9430   3.9430   4.1377   5.1661

     occupation numbers 
     1.0000   1.0000   1.0000   1.0000   0.0000   0.0000   0.0000   0.0000
     0.0000   0.0000   0.0000   0.0000   0.0000   0.0000   0.0000   0.0000

          k = 0.1800 0.0000 0.0000 ( 10383 PWs)   bands (ev):

   -20.2631 -14.2922  -9.0351  -9.0351   0.5560   2.1321   2.1321   2.1824
     2.3677   3.1411   3.6735   3.6735   3.7752   3.7752   4.2142   5.2740

     occupation numbers 
     1.0000   1.0000   1.0000   1.0000   0.0000   0.0000   0.0000   0.0000
     0.0000   0.0000   0.0000   0.0000   0.0000   0.0000   0.0000   0.0000

          k = 0.1900 0.0000 0.0000 ( 10387 PWs)   bands (ev):

   -20.2163 -14.3775  -8.9556  -8.9556   0.6371   2.2160   2.2160   2.2670
     2.4484   3.2257   3.4107   3.4107   3.8558   3.8558   4.2950   5.3851

     occupation numbers 
     1.0000   1.0000   1.0000   1.0000   0.0000   0.0000   0.0000   0.0000
     0.0000   0.0000   0.0000   0.0000   0.0000   0.0000   0.0000   0.0000

          k = 0.2000 0.0000 0.0000 ( 10395 PWs)   bands (ev):

   -20.1670 -14.4657  -8.8717  -8.8717   0.7226   2.3043   2.3043   2.3561
     2.5335   3.1422   3.1422   3.3148   3.9441   3.9441   4.3801   5.4988

     occupation numbers 
     1.0000   1.0000   1.0000   1.0000   0.0000   0.0000   0.0000   0.0000
     0.0000   0.0000   0.0000   0.0000   0.0000   0.0000   0.0000   0.0000

          k = 0.2100 0.0000 0.0000 ( 10387 PWs)   bands (ev):

   -20.1154 -14.5569  -8.7836  -8.7836   0.8125   2.3967   2.3967   2.4498
     2.6229   2.8720   2.8720   3.4085   4.0373   4.0373   4.4695   5.6146

     occupation numbers 
     1.0000   1.0000   1.0000   1.0000   0.0000   0.0000   0.0000   0.0000
     0.0000   0.0000   0.0000   0.0000   0.0000   0.0000   0.0000   0.0000

          k = 0.2200 0.0000 0.0000 ( 10403 PWs)   bands (ev):

   -20.0614 -14.6507  -8.6913  -8.6913   0.9066   2.4881   2.4881   2.5480
     2.6058   2.6058   2.7166   3.5067   4.1351   4.1351   4.5632   5.6522

     occupation numbers 
     1.0000   1.0000   1.0000   1.0000   0.0000   0.0000   0.0000   0.0000
     0.0000   0.0000   0.0000   0.0000   0.0000   0.0000   0.0000   0.0000

          k = 0.2300 0.0000 0.0000 ( 10379 PWs)   bands (ev):

   -20.0051 -14.7469  -8.5947  -8.5947   1.0050   2.3208   2.3208   2.6018
     2.6018   2.6509   2.8146   3.6096   4.2375   4.2375   4.6612   5.7550

     occupation numbers 
     1.0000   1.0000   1.0000   1.0000   0.0000   0.0000   0.0000   0.0000
     0.0000   0.0000   0.0000   0.0000   0.0000   0.0000   0.0000   0.0000

          k = 0.2400 0.0000 0.0000 ( 10367 PWs)   bands (ev):

   -19.9464 -14.8455  -8.4939  -8.4939   1.1077   2.0487   2.0487   2.7068
     2.7068   2.7583   2.9168   3.7170   4.3445   4.3445   4.7634   5.8624

     occupation numbers 
     1.0000   1.0000   1.0000   1.0000   0.0000   0.0000   0.0000   0.0000
     0.0000   0.0000   0.0000   0.0000   0.0000   0.0000   0.0000   0.0000

          k = 0.2500 0.0000 0.0000 ( 10359 PWs)   bands (ev):

   -19.8854 -14.9462  -8.3888  -8.3888   1.2146   1.7752   1.7752   2.8176
     2.8176   2.8702   3.0233   3.8289   4.4560   4.4560   4.8700   5.9743

     occupation numbers 
     1.0000   1.0000   1.0000   1.0000   0.0000   0.0000   0.0000   0.0000
     0.0000   0.0000   0.0000   0.0000   0.0000   0.0000   0.0000   0.0000

          k = 0.2600 0.0000 0.0000 ( 10367 PWs)   bands (ev):

   -19.8222 -15.0488  -8.2796  -8.2796   1.3258   1.5018   1.5018   2.9332
     2.9332   2.9868   3.1340   3.9455   4.5721   4.5721   4.9808   6.1981

     occupation numbers 
     1.0000   1.0000   1.0000   1.0000   0.0000   0.0000   0.0000   0.0000
     0.0000   0.0000   0.0000   0.0000   0.0000   0.0000   0.0000   0.0000

          k = 0.2700 0.0000 0.0000 ( 10351 PWs)   bands (ev):

   -19.7567 -15.1532  -8.1661  -8.1661   1.2290   1.2290   1.4412   3.0535
     3.0535   3.1079   3.2489   4.0666   4.6927   4.6927   5.0958   6.2120

     occupation numbers 
     1.0000   1.0000   1.0000   1.0000   0.0000   0.0000   0.0000   0.0000
     0.0000   0.0000   0.0000   0.0000   0.0000   0.0000   0.0000   0.0000

          k = 0.2800 0.0000 0.0000 ( 10351 PWs)   bands (ev):

   -19.6890 -15.2592  -8.0484  -8.0484   0.9571   0.9571   1.5608   3.1784
     3.1784   3.2336   3.3680   4.1922   4.8179   4.8179   5.2150   6.3376

     occupation numbers 
     1.0000   1.0000   1.0000   1.0000   0.0000   0.0000   0.0000   0.0000
     0.0000   0.0000   0.0000   0.0000   0.0000   0.0000   0.0000   0.0000

          k = 0.2900 0.0000 0.0000 ( 10347 PWs)   bands (ev):

   -19.6191 -15.3666  -7.9265  -7.9265   0.6865   0.6865   1.6846   3.3078
     3.3078   3.3638   3.4912   4.3225   4.9476   4.9476   5.3383   6.5166

     occupation numbers 
     1.0000   1.0000   1.0000   1.0000   0.0000   0.0000   0.0000   0.0000
     0.0000   0.0000   0.0000   0.0000   0.0000   0.0000   0.0000   0.0000

          k = 0.3000 0.0000 0.0000 ( 10355 PWs)   bands (ev):

   -19.5471 -15.4752  -7.8005  -7.8005   0.4175   0.4175   1.8125   3.4417
     3.4417   3.4986   3.6186   4.4573   5.0819   5.0819   5.4659   6.6096

     occupation numbers 
     1.0000   1.0000   1.0000   1.0000   0.0000   0.0000   0.0000   0.0000
     0.0000   0.0000   0.0000   0.0000   0.0000   0.0000   0.0000   0.0000

          k = 0.3100 0.0000 0.0000 ( 10375 PWs)   bands (ev):

   -19.4729 -15.5850  -7.6703  -7.6703   0.1501   0.1501   1.9444   3.5802
     3.5802   3.6380   3.7501   4.5967   5.2207   5.2207   5.5975   6.6932

     occupation numbers 
     1.0000   1.0000   1.0000   1.0000   0.0000   0.0000   0.0000   0.0000
     0.0000   0.0000   0.0000   0.0000   0.0000   0.0000   0.0000   0.0000

          k = 0.3200 0.0000 0.0000 ( 10355 PWs)   bands (ev):

   -19.3967 -15.6957  -7.5359  -7.5359  -0.1153  -0.1153   2.0805   3.7233
     3.7233   3.7820   3.8857   4.7406   5.3641   5.3641   5.7332   6.7655

     occupation numbers 
     1.0000   1.0000   1.0000   1.0000   0.0000   0.0000   0.0000   0.0000
     0.0000   0.0000   0.0000   0.0000   0.0000   0.0000   0.0000   0.0000

          k = 0.3300 0.0000 0.0000 ( 10339 PWs)   bands (ev):

   -19.3184 -15.8072  -7.3974  -7.3974  -0.3785  -0.3785   2.2206   3.8709
     3.8709   3.9305   4.0254   4.8892   5.5120   5.5120   5.8729   6.8242

     occupation numbers 
     1.0000   1.0000   1.0000   1.0000   0.0000   0.0000   0.0000   0.0000
     0.0000   0.0000   0.0000   0.0000   0.0000   0.0000   0.0000   0.0000

          k = 0.3400 0.0000 0.0000 ( 10359 PWs)   bands (ev):

   -19.2381 -15.9194  -7.2548  -7.2548  -0.6394  -0.6394   2.3646   4.0230
     4.0230   4.0836   4.1690   5.0423   5.6644   5.6644   6.0166   6.8674

     occupation numbers 
     1.0000   1.0000   1.0000   1.0000   0.0000   0.0000   0.0000   0.0000
     0.0000   0.0000   0.0000   0.0000   0.0000   0.0000   0.0000   0.0000

          k = 0.3500 0.0000 0.0000 ( 10323 PWs)   bands (ev):

   -19.1559 -16.0321  -7.1081  -7.1081  -0.8978  -0.8978   2.5125   4.1796
     4.1796   4.2413   4.3166   5.1999   5.8214   5.8214   6.1641   6.8930

     occupation numbers 
     1.0000   1.0000   1.0000   1.0000   0.0000   0.0000   0.0000   0.0000
     0.0000   0.0000   0.0000   0.0000   0.0000   0.0000   0.0000   0.0000

          k = 0.3600 0.0000 0.0000 ( 10335 PWs)   bands (ev):

   -19.0717 -16.1452  -6.9573  -6.9573  -1.1536  -1.1536   2.6643   4.3408
     4.3408   4.4035   4.4680   5.3622   5.9829   5.9829   6.3151   6.8991

     occupation numbers 
     1.0000   1.0000   1.0000   1.0000   0.0000   0.0000   0.0000   0.0000
     0.0000   0.0000   0.0000   0.0000   0.0000   0.0000   0.0000   0.0000

          k = 0.3700 0.0000 0.0000 ( 10327 PWs)   bands (ev):

   -18.9856 -16.2586  -6.8025  -6.8025  -1.4067  -1.4067   2.8198   4.5064
     4.5064   4.5703   4.6233   5.5290   6.1490   6.1490   6.4690   6.8849

     occupation numbers 
     1.0000   1.0000   1.0000   1.0000   0.0000   0.0000   0.0000   0.0000
     0.0000   0.0000   0.0000   0.0000   0.0000   0.0000   0.0000   0.0000

          k = 0.3800 0.0000 0.0000 ( 10319 PWs)   bands (ev):

   -18.8977 -16.3721  -6.6437  -6.6437  -1.6568  -1.6568   2.9790   4.6766
     4.6766   4.7417   4.7824   5.7004   6.3196   6.3196   6.6227   6.8524

     occupation numbers 
     1.0000   1.0000   1.0000   1.0000   0.0000   0.0000   0.0000   0.0000
     0.0000   0.0000   0.0000   0.0000   0.0000   0.0000   0.0000   0.0000

          k = 0.3900 0.0000 0.0000 ( 10299 PWs)   bands (ev):

   -18.8081 -16.4855  -6.4808  -6.4808  -1.9039  -1.9039   3.1418   4.8513
     4.8514   4.9177   4.9451   5.8763   6.4948   6.4948   6.7355   6.8421

     occupation numbers 
     1.0000   1.0000   1.0000   1.0000   0.0000   0.0000   0.0000   0.0000
     0.0000   0.0000   0.0000   0.0000   0.0000   0.0000   0.0000   0.0000

          k = 0.4000 0.0000 0.0000 ( 10291 PWs)   bands (ev):

   -18.7167 -16.5989  -6.3140  -6.3140  -2.1479  -2.1479   3.3081   5.0306
     5.0306   5.0982   5.1114   6.0568   6.6744   6.6745   6.6860   6.9758

     occupation numbers 
     1.0000   1.0000   1.0000   1.0000   0.0000   0.0000   0.0000   0.0000
     0.0000   0.0000   0.0000   0.0000   0.0000   0.0000   0.0000   0.0000

          k = 0.4100 0.0000 0.0000 ( 10279 PWs)   bands (ev):

   -18.6237 -16.7119  -6.1434  -6.1434  -2.3886  -2.3886   3.4776   5.2143
     5.2143   5.2812   5.2833   6.2419   6.5876   6.8586   6.8586   7.1417

     occupation numbers 
     1.0000   1.0000   1.0000   1.0000   0.0000   0.0000   0.0000   0.0000
     0.0000   0.0000   0.0000   0.0000   0.0000   0.0000   0.0000   0.0000

          k = 0.4200 0.0000 0.0000 ( 10287 PWs)   bands (ev):

   -18.5291 -16.8246  -5.9689  -5.9689  -2.6260  -2.6260   3.6504   5.4026
     5.4026   5.4542   5.4729   6.4315   6.4678   7.0474   7.0474   7.3141

     occupation numbers 
     1.0000   1.0000   1.0000   1.0000   0.0000   0.0000   0.0000   0.0000
     0.0000   0.0000   0.0000   0.0000   0.0000   0.0000   0.0000   0.0000

          k = 0.4300 0.0000 0.0000 ( 10271 PWs)   bands (ev):

   -18.4330 -16.9368  -5.7907  -5.7907  -2.8597  -2.8597   3.8260   5.5953
     5.5953   5.6300   5.6672   6.3316   6.6258   7.2406   7.2406   7.4905

     occupation numbers 
     1.0000   1.0000   1.0000   1.0000   0.0000   0.0000   0.0000   0.0000
     0.0000   0.0000   0.0000   0.0000   0.0000   0.0000   0.0000   0.0000

          k = 0.4400 0.0000 0.0000 ( 10251 PWs)   bands (ev):

   -18.3356 -17.0482  -5.6089  -5.6089  -3.0897  -3.0897   4.0044   5.7926
     5.7926   5.8072   5.8660   6.1834   6.8246   7.4384   7.4384   7.6699

     occupation numbers 
     1.0000   1.0000   1.0000   1.0000   0.0000   0.0000   0.0000   0.0000
     0.0000   0.0000   0.0000   0.0000   0.0000   0.0000   0.0000   0.0000

          k = 0.4500 0.0000 0.0000 ( 10271 PWs)   bands (ev):

   -18.2369 -17.1588  -5.4238  -5.4238  -3.3157  -3.3157   4.1852   5.9596
     5.9943   5.9943   6.0523   6.0693   7.0279   7.6406   7.6407   7.8444

     occupation numbers 
     1.0000   1.0000   1.0000   1.0000   0.0000   0.0000   0.0000   0.0000
     0.0000   0.0000   0.0000   0.0000   0.0000   0.0000   0.0000   0.0000

          k = 0.4600 0.0000 0.0000 ( 10278 PWs)   bands (ev):

   -18.1374 -17.2681  -5.2359  -5.2359  -3.5372  -3.5372   4.3681   5.8402
     6.1872   6.2005   6.2005   6.2773   7.2359   7.7402   7.8471   7.8472

     occupation numbers 
     1.0000   1.0000   1.0000   1.0000   0.0000   0.0000   0.0000   0.0000
     0.0000   0.0000   0.0000   0.0000   0.0000   0.0000   0.0000   0.0000

          k = 0.4700 0.0000 0.0000 ( 10254 PWs)   bands (ev):

   -18.0375 -17.3757  -5.0461  -5.0461  -3.7530  -3.7530   4.5525   5.6669
     6.3723   6.4112   6.4113   6.4898   7.4483   7.5429   7.7697   7.7704

     occupation numbers 
     1.0000   1.0000   1.0000   1.0000   0.0000   0.0000   0.0000   0.0000
     0.0000   0.0000   0.0000   0.0000   0.0000   0.0000   0.0000   0.0000

          k = 0.4800 0.0000 0.0000 ( 10238 PWs)   bands (ev):

   -17.9388 -17.4799  -4.8575  -4.8575  -3.9603  -3.9603   4.7378   5.4875
     6.5615   6.6264   6.6264   6.7068   7.3453   7.5323   7.5325   7.6213

     occupation numbers 
     1.0000   1.0000   1.0000   1.0000   0.0000   0.0000   0.0000   0.0000
     0.0000   0.0000   0.0000   0.0000   0.0000   0.0000   0.0000   0.0000

          k = 0.4900 0.0000 0.0000 ( 10262 PWs)   bands (ev):

   -17.8469 -17.5751  -4.6811  -4.6811  -4.1479  -4.1479   4.9218   5.3064
     6.7523   6.8458   6.8459   6.9285   7.1494   7.2994   7.2995   7.3856

     occupation numbers 
     1.0000   1.0000   1.0000   1.0000   0.0000   0.0000   0.0000   0.0000
     0.0000   0.0000   0.0000   0.0000   0.0000   0.0000   0.0000   0.0000

          k =-0.5000 0.0000 0.0000 ( 10242 PWs)   bands (ev):

   -17.7956 -17.6275  -4.5827  -4.5827  -4.2500  -4.2500   5.0676   5.1615
     6.9145   6.9857   7.0568   7.0568   7.0840   7.0840   7.1506   7.1589

     occupation numbers 
     1.0000   1.0000   1.0000   1.0000   0.0000   0.0000   0.0000   0.0000
     0.0000   0.0000   0.0000   0.0000   0.0000   0.0000   0.0000   0.0000

     highest occupied, lowest unoccupied level (ev):    -4.5827   -4.2500

!    total energy              =     -36.74406373 Ry

     total all-electron energy =      -152.272259 Ry
     estimated scf accuracy    <          8.5E-10 Ry

     The total energy is the sum of the following terms:
     one-electron contribution =     -65.67368131 Ry
     hartree contribution      =      33.79652922 Ry
     xc contribution           =      -9.08729218 Ry
     ewald contribution        =      16.56128813 Ry
     one-center paw contrib.   =     -12.34090758 Ry
      -> PAW hartree energy AE =       9.67430348 Ry
      -> PAW hartree energy PS =      -9.66532099 Ry
      -> PAW xc energy AE      =     -10.72470708 Ry
      -> PAW xc energy PS      =       4.54527057 Ry
      -> total E_H with PAW    =      33.80551170 Ry
      -> total E_XC with PAW   =     -15.26672869 Ry

     convergence has been achieved in   7 iterations

     negative rho (up, down):  1.846E-04 0.000E+00

     Forces acting on atoms (cartesian axes, Ry/au):

     atom    1 type  1   force =     0.00025383    0.00000000    0.00000000
     atom    2 type  1   force =    -0.00025383    0.00000000    0.00000000
     The non-local contrib.  to forces
     atom    1 type  1   force =    -0.07429740    0.00000000    0.00000000
     atom    2 type  1   force =     0.07429238    0.00000000    0.00000000
     The ionic contribution  to forces
     atom    1 type  1   force =    -0.33248491   -0.00000000   -0.00000000
     atom    2 type  1   force =     0.33248491   -0.00000000   -0.00000000
     The local contribution  to forces
     atom    1 type  1   force =     0.40373074    0.00000000    0.00000000
     atom    2 type  1   force =    -0.40371703    0.00000000    0.00000000
     The core correction contribution to forces
     atom    1 type  1   force =     0.00323347   -0.00000000   -0.00000000
     atom    2 type  1   force =    -0.00336974   -0.00000000   -0.00000000
     The Hubbard contrib.    to forces
     atom    1 type  1   force =     0.00000000    0.00000000    0.00000000
     atom    2 type  1   force =     0.00000000    0.00000000    0.00000000
     The SCF correction term to forces
     atom    1 type  1   force =     0.00000767   -0.00000000    0.00000000
     atom    2 type  1   force =    -0.00000860    0.00000000   -0.00000000

     Total force =     0.000359     Total SCF correction =     0.000012


     Computing stress (Cartesian axis) and pressure


     negative rho (up, down):  1.846E-04 0.000E+00
          total   stress  (Ry/bohr**3)                   (kbar)     P=       -0.07
  -0.00000050   0.00000000   0.00000000           -0.07        0.00        0.00
   0.00000000  -0.00000047   0.00000000            0.00       -0.07        0.00
   0.00000000   0.00000000  -0.00000047            0.00        0.00       -0.07

     kinetic stress (kbar)    624.29      0.00      0.00
                                0.00    907.43      0.00
                                0.00      0.00    907.43

     local   stress (kbar)  -7178.84      0.00     -0.00
                                0.00    234.18     -0.00
                               -0.00     -0.00    234.18

     nonloc. stress (kbar)    232.52      0.00      0.00
                                0.00    185.66      0.00
                                0.00      0.00    185.66

     hartree stress (kbar)   2870.29      0.00     -0.00
                                0.00      0.62      0.00
                               -0.00      0.00      0.62

     exc-cor stress (kbar)     -4.16      0.00     -0.00
                                0.00    -16.89     -0.00
                               -0.00     -0.00    -16.89

     corecor stress (kbar)   -194.48     -0.00     -0.00
                               -0.00   -189.49     -0.00
                               -0.00     -0.00   -189.49

     ewald   stress (kbar)   3650.31     -0.00     -0.00
                               -0.00  -1121.59     -0.00
                               -0.00     -0.00  -1121.59

     hubbard stress (kbar)      0.00      0.00      0.00
                                0.00      0.00      0.00
                                0.00      0.00      0.00

     DFT-D   stress (kbar)      0.00      0.00      0.00
                                0.00      0.00      0.00
                                0.00      0.00      0.00

     XDM     stress (kbar)      0.00      0.00      0.00
                                0.00      0.00      0.00
                                0.00      0.00      0.00

     dft-nl  stress (kbar)      0.00      0.00      0.00
                                0.00      0.00      0.00
                                0.00      0.00      0.00

     TS-vdW  stress (kbar)      0.00      0.00      0.00
                                0.00      0.00      0.00
                                0.00      0.00      0.00



     BFGS Geometry Optimization
     Energy error            =      0.0E+00
     Gradient error          =      2.5E-04
     Cell gradient error     =      5.0E-07


     number of scf cycles    =   1
     number of bfgs steps    =   0

     enthalpy new            =     -36.7440637281 Ry

     new trust radius        =       0.0002538258 bohr
     new conv_thr            =       0.0000000100 Ry

     new unit-cell volume =   1731.33284 a.u.^3 (   256.55706 Ang^3 )
     density =      0.15548 g/cm^3

CELL_PARAMETERS (angstrom)
   2.565570572   0.000000000   0.000000000
   0.000000000  10.000000000   0.000000000
   0.000000000   0.000000000  10.000000000

ATOMIC_POSITIONS (angstrom)
C             0.0004257029        5.0000000000        5.0000000000
C             1.2643332794        5.0000000000        5.0000000000



     Writing output data file ./outdir/carbyne.save/
     NEW-OLD atomic charge density approx. for the potential

     Check: negative core charge=   -0.000002

     negative rho (up, down):  1.846E-04 0.000E+00
     extrapolated charge    7.99990, renormalised to    8.00000

     total cpu time spent up to now is       31.9 secs

     Self-consistent Calculation

     iteration #  1     ecut=    50.00 Ry     beta= 0.70
     Davidson diagonalization with overlap
     ethr =  1.00E-06,  avg # of iterations =  2.0

     Threshold (ethr) on eigenvalues was too large:
     Diagonalizing with lowered threshold

     Davidson diagonalization with overlap
     ethr =  5.81E-09,  avg # of iterations =  1.5

     negative rho (up, down):  1.846E-04 0.000E+00

     total cpu time spent up to now is       33.6 secs

     total energy              =     -36.74406364 Ry
     estimated scf accuracy    <       0.00000051 Ry

     iteration #  2     ecut=    50.00 Ry     beta= 0.70
     Davidson diagonalization with overlap
     ethr =  6.40E-09,  avg # of iterations =  2.0

     negative rho (up, down):  1.846E-04 0.000E+00

     total cpu time spent up to now is       34.7 secs

     total energy              =     -36.74406377 Ry
     estimated scf accuracy    <       0.00000004 Ry

     iteration #  3     ecut=    50.00 Ry     beta= 0.70
     Davidson diagonalization with overlap
     ethr =  4.69E-10,  avg # of iterations =  1.6

     negative rho (up, down):  1.845E-04 0.000E+00

     total cpu time spent up to now is       35.8 secs

     total energy              =     -36.74406378 Ry
     estimated scf accuracy    <       0.00000001 Ry

     iteration #  4     ecut=    50.00 Ry     beta= 0.70
     Davidson diagonalization with overlap
     ethr =  1.67E-10,  avg # of iterations =  1.0

     negative rho (up, down):  1.845E-04 0.000E+00

     total cpu time spent up to now is       36.8 secs

     End of self-consistent calculation

          k = 0.0000 0.0000 0.0000 ( 10379 PWs)   bands (ev):

   -20.6779 -13.4756  -9.7333  -9.7333  -0.1569   1.3960   1.3960   1.4422
     1.6583   2.4009   3.0326   3.0326   3.5053   4.1734   4.5464   5.9452

     occupation numbers 
     1.0000   1.0000   1.0000   1.0000   0.0000   0.0000   0.0000   0.0000
     0.0000   0.0000   0.0000   0.0000   0.0000   0.0000   0.0000   0.0000

          k = 0.0100 0.0000 0.0000 ( 10379 PWs)   bands (ev):

   -20.6766 -13.4783  -9.7311  -9.7311  -0.1547   1.3983   1.3983   1.4444
     1.6605   2.4032   3.0349   3.0349   3.5075   4.1772   4.5487   5.9482

     occupation numbers 
     1.0000   1.0000   1.0000   1.0000   0.0000   0.0000   0.0000   0.0000
     0.0000   0.0000   0.0000   0.0000   0.0000   0.0000   0.0000   0.0000

          k = 0.0200 0.0000 0.0000 ( 10387 PWs)   bands (ev):

   -20.6728 -13.4866  -9.7246  -9.7246  -0.1481   1.4051   1.4051   1.4513
     1.6671   2.4100   3.0417   3.0417   3.5141   4.1884   4.5555   5.9543

     occupation numbers 
     1.0000   1.0000   1.0000   1.0000   0.0000   0.0000   0.0000   0.0000
     0.0000   0.0000   0.0000   0.0000   0.0000   0.0000   0.0000   0.0000

          k = 0.0300 0.0000 0.0000 ( 10379 PWs)   bands (ev):

   -20.6663 -13.5002  -9.7139  -9.7139  -0.1371   1.4165   1.4165   1.4627
     1.6781   2.4215   3.0531   3.0531   3.5250   4.2071   4.5669   5.9658

     occupation numbers 
     1.0000   1.0000   1.0000   1.0000   0.0000   0.0000   0.0000   0.0000
     0.0000   0.0000   0.0000   0.0000   0.0000   0.0000   0.0000   0.0000

          k = 0.0400 0.0000 0.0000 ( 10355 PWs)   bands (ev):

   -20.6572 -13.5192  -9.6987  -9.6987  -0.1216   1.4324   1.4324   1.4787
     1.6934   2.4374   3.0690   3.0690   3.5404   4.2332   4.5829   5.9828

     occupation numbers 
     1.0000   1.0000   1.0000   1.0000   0.0000   0.0000   0.0000   0.0000
     0.0000   0.0000   0.0000   0.0000   0.0000   0.0000   0.0000   0.0000

          k = 0.0500 0.0000 0.0000 ( 10355 PWs)   bands (ev):

   -20.6456 -13.5436  -9.6793  -9.6793  -0.1018   1.4529   1.4529   1.4993
     1.7132   2.4580   3.0895   3.0895   3.5601   4.2665   4.6035   6.0023

     occupation numbers 
     1.0000   1.0000   1.0000   1.0000   0.0000   0.0000   0.0000   0.0000
     0.0000   0.0000   0.0000   0.0000   0.0000   0.0000   0.0000   0.0000

          k = 0.0600 0.0000 0.0000 ( 10339 PWs)   bands (ev):

   -20.6314 -13.5733  -9.6556  -9.6556  -0.0775   1.4779   1.4779   1.5244
     1.7373   2.4831   3.1146   3.1146   3.5842   4.3070   4.6286   6.0276

     occupation numbers 
     1.0000   1.0000   1.0000   1.0000   0.0000   0.0000   0.0000   0.0000
     0.0000   0.0000   0.0000   0.0000   0.0000   0.0000   0.0000   0.0000

          k = 0.0700 0.0000 0.0000 ( 10347 PWs)   bands (ev):

   -20.6146 -13.6081  -9.6275  -9.6275  -0.0489   1.5074   1.5074   1.5541
     1.7658   2.5129   3.1442   3.1442   3.6127   4.3546   4.6583   6.0573

     occupation numbers 
     1.0000   1.0000   1.0000   1.0000   0.0000   0.0000   0.0000   0.0000
     0.0000   0.0000   0.0000   0.0000   0.0000   0.0000   0.0000   0.0000

          k = 0.0800 0.0000 0.0000 ( 10335 PWs)   bands (ev):

   -20.5953 -13.6479  -9.5952  -9.5952  -0.0158   1.5415   1.5415   1.5884
     1.7987   2.5471   3.1783   3.1783   3.6455   4.4090   4.6926   5.9919

     occupation numbers 
     1.0000   1.0000   1.0000   1.0000   0.0000   0.0000   0.0000   0.0000
     0.0000   0.0000   0.0000   0.0000   0.0000   0.0000   0.0000   0.0000

          k = 0.0900 0.0000 0.0000 ( 10343 PWs)   bands (ev):

   -20.5734 -13.6927  -9.5585  -9.5585   0.0217   1.5801   1.5801   1.6272
     1.8360   2.5860   3.2170   3.2170   3.6827   4.4700   4.7314   5.8078

     occupation numbers 
     1.0000   1.0000   1.0000   1.0000   0.0000   0.0000   0.0000   0.0000
     0.0000   0.0000   0.0000   0.0000   0.0000   0.0000   0.0000   0.0000

          k = 0.1000 0.0000 0.0000 ( 10355 PWs)   bands (ev):

   -20.5490 -13.7422  -9.5175  -9.5175   0.0635   1.6233   1.6233   1.6707
     1.8776   2.6294   3.2603   3.2603   3.7243   4.5375   4.7749   5.6093

     occupation numbers 
     1.0000   1.0000   1.0000   1.0000   0.0000   0.0000   0.0000   0.0000
     0.0000   0.0000   0.0000   0.0000   0.0000   0.0000   0.0000   0.0000

          k = 0.1100 0.0000 0.0000 ( 10375 PWs)   bands (ev):

   -20.5220 -13.7965  -9.4723  -9.4723   0.1098   1.6711   1.6711   1.7187
     1.9236   2.6774   3.3081   3.3081   3.7703   4.6112   4.8228   5.3981

     occupation numbers 
     1.0000   1.0000   1.0000   1.0000   0.0000   0.0000   0.0000   0.0000
     0.0000   0.0000   0.0000   0.0000   0.0000   0.0000   0.0000   0.0000

          k = 0.1200 0.0000 0.0000 ( 10367 PWs)   bands (ev):

   -20.4925 -13.8552  -9.4227  -9.4227   0.1604   1.7233   1.7233   1.7712
     1.9740   2.7299   3.3604   3.3604   3.8207   4.6908   4.8754   5.1756

     occupation numbers 
     1.0000   1.0000   1.0000   1.0000   0.0000   0.0000   0.0000   0.0000
     0.0000   0.0000   0.0000   0.0000   0.0000   0.0000   0.0000   0.0000

          k = 0.1300 0.0000 0.0000 ( 10343 PWs)   bands (ev):

   -20.4605 -13.9182  -9.3688  -9.3688   0.2154   1.7801   1.7801   1.8283
     2.0287   2.7871   3.4173   3.4173   3.8754   4.7761   4.9434   4.9434

     occupation numbers 
     1.0000   1.0000   1.0000   1.0000   0.0000   0.0000   0.0000   0.0000
     0.0000   0.0000   0.0000   0.0000   0.0000   0.0000   0.0000   0.0000

          k = 0.1400 0.0000 0.0000 ( 10343 PWs)   bands (ev):

   -20.4259 -13.9854  -9.3107  -9.3107   0.2748   1.8415   1.8415   1.8900
     2.0878   2.8488   3.4787   3.4787   3.9344   4.7029   4.7029   4.8666

     occupation numbers 
     1.0000   1.0000   1.0000   1.0000   0.0000   0.0000   0.0000   0.0000
     0.0000   0.0000   0.0000   0.0000   0.0000   0.0000   0.0000   0.0000

          k = 0.1500 0.0000 0.0000 ( 10351 PWs)   bands (ev):

   -20.3889 -14.0566  -9.2482  -9.2482   0.3386   1.9074   1.9074   1.9563
     2.1513   2.9150   3.5446   3.5446   3.9979   4.4552   4.4552   4.9621

     occupation numbers 
     1.0000   1.0000   1.0000   1.0000   0.0000   0.0000   0.0000   0.0000
     0.0000   0.0000   0.0000   0.0000   0.0000   0.0000   0.0000   0.0000

          k = 0.1600 0.0000 0.0000 ( 10347 PWs)   bands (ev):

   -20.3494 -14.1315  -9.1815  -9.1815   0.4067   1.9778   1.9778   2.0271
     2.2191   2.9859   3.6149   3.6149   4.0656   4.2016   4.2016   5.0622

     occupation numbers 
     1.0000   1.0000   1.0000   1.0000   0.0000   0.0000   0.0000   0.0000
     0.0000   0.0000   0.0000   0.0000   0.0000   0.0000   0.0000   0.0000

          k = 0.1700 0.0000 0.0000 ( 10371 PWs)   bands (ev):

   -20.3075 -14.2101  -9.1104  -9.1104   0.4792   2.0527   2.0527   2.1026
     2.2912   3.0613   3.6890   3.6890   3.9437   3.9437   4.1377   5.1664

     occupation numbers 
     1.0000   1.0000   1.0000   1.0000   0.0000   0.0000   0.0000   0.0000
     0.0000   0.0000   0.0000   0.0000   0.0000   0.0000   0.0000   0.0000

          k = 0.1800 0.0000 0.0000 ( 10383 PWs)   bands (ev):

   -20.2631 -14.2921  -9.0351  -9.0351   0.5561   2.1322   2.1322   2.1825
     2.3677   3.1413   3.6739   3.6739   3.7754   3.7754   4.2142   5.2743

     occupation numbers 
     1.0000   1.0000   1.0000   1.0000   0.0000   0.0000   0.0000   0.0000
     0.0000   0.0000   0.0000   0.0000   0.0000   0.0000   0.0000   0.0000

          k = 0.1900 0.0000 0.0000 ( 10387 PWs)   bands (ev):

   -20.2162 -14.3774  -8.9556  -8.9556   0.6372   2.2161   2.2161   2.2671
     2.4485   3.2258   3.4113   3.4113   3.8559   3.8559   4.2950   5.3853

     occupation numbers 
     1.0000   1.0000   1.0000   1.0000   0.0000   0.0000   0.0000   0.0000
     0.0000   0.0000   0.0000   0.0000   0.0000   0.0000   0.0000   0.0000

          k = 0.2000 0.0000 0.0000 ( 10395 PWs)   bands (ev):

   -20.1670 -14.4656  -8.8717  -8.8717   0.7227   2.3044   2.3044   2.3562
     2.5335   3.1428   3.1428   3.3149   3.9442   3.9442   4.3801   5.4990

     occupation numbers 
     1.0000   1.0000   1.0000   1.0000   0.0000   0.0000   0.0000   0.0000
     0.0000   0.0000   0.0000   0.0000   0.0000   0.0000   0.0000   0.0000

          k = 0.2100 0.0000 0.0000 ( 10387 PWs)   bands (ev):

   -20.1154 -14.5568  -8.7837  -8.7837   0.8126   2.3967   2.3967   2.4499
     2.6229   2.8726   2.8726   3.4086   4.0374   4.0374   4.4695   5.6148

     occupation numbers 
     1.0000   1.0000   1.0000   1.0000   0.0000   0.0000   0.0000   0.0000
     0.0000   0.0000   0.0000   0.0000   0.0000   0.0000   0.0000   0.0000

          k = 0.2200 0.0000 0.0000 ( 10403 PWs)   bands (ev):

   -20.0614 -14.6505  -8.6913  -8.6913   0.9067   2.4880   2.4880   2.5482
     2.6065   2.6065   2.7166   3.5069   4.1352   4.1352   4.5632   5.6523

     occupation numbers 
     1.0000   1.0000   1.0000   1.0000   0.0000   0.0000   0.0000   0.0000
     0.0000   0.0000   0.0000   0.0000   0.0000   0.0000   0.0000   0.0000

          k = 0.2300 0.0000 0.0000 ( 10379 PWs)   bands (ev):

   -20.0050 -14.7468  -8.5947  -8.5947   1.0051   2.3212   2.3212   2.6020
     2.6020   2.6510   2.8146   3.6097   4.2376   4.2376   4.6612   5.7551

     occupation numbers 
     1.0000   1.0000   1.0000   1.0000   0.0000   0.0000   0.0000   0.0000
     0.0000   0.0000   0.0000   0.0000   0.0000   0.0000   0.0000   0.0000

          k = 0.2400 0.0000 0.0000 ( 10367 PWs)   bands (ev):

   -19.9464 -14.8454  -8.4939  -8.4939   1.1078   2.0491   2.0491   2.7069
     2.7069   2.7584   2.9168   3.7171   4.3445   4.3445   4.7635   5.8625

     occupation numbers 
     1.0000   1.0000   1.0000   1.0000   0.0000   0.0000   0.0000   0.0000
     0.0000   0.0000   0.0000   0.0000   0.0000   0.0000   0.0000   0.0000

          k = 0.2500 0.0000 0.0000 ( 10359 PWs)   bands (ev):

   -19.8854 -14.9461  -8.3888  -8.3888   1.2148   1.7757   1.7757   2.8177
     2.8177   2.8704   3.0233   3.8291   4.4561   4.4561   4.8700   5.9744

     occupation numbers 
     1.0000   1.0000   1.0000   1.0000   0.0000   0.0000   0.0000   0.0000
     0.0000   0.0000   0.0000   0.0000   0.0000   0.0000   0.0000   0.0000

          k = 0.2600 0.0000 0.0000 ( 10367 PWs)   bands (ev):

   -19.8222 -15.0487  -8.2796  -8.2796   1.3259   1.5023   1.5023   2.9334
     2.9334   2.9869   3.1340   3.9456   4.5721   4.5721   4.9808   6.1982

     occupation numbers 
     1.0000   1.0000   1.0000   1.0000   0.0000   0.0000   0.0000   0.0000
     0.0000   0.0000   0.0000   0.0000   0.0000   0.0000   0.0000   0.0000

          k = 0.2700 0.0000 0.0000 ( 10351 PWs)   bands (ev):

   -19.7567 -15.1530  -8.1661  -8.1661   1.2295   1.2295   1.4413   3.0536
     3.0536   3.1080   3.2489   4.0667   4.6928   4.6928   5.0958   6.2121

     occupation numbers 
     1.0000   1.0000   1.0000   1.0000   0.0000   0.0000   0.0000   0.0000
     0.0000   0.0000   0.0000   0.0000   0.0000   0.0000   0.0000   0.0000

          k = 0.2800 0.0000 0.0000 ( 10351 PWs)   bands (ev):

   -19.6890 -15.2590  -8.0484  -8.0484   0.9576   0.9576   1.5609   3.1785
     3.1785   3.2337   3.3680   4.1924   4.8180   4.8180   5.2150   6.3377

     occupation numbers 
     1.0000   1.0000   1.0000   1.0000   0.0000   0.0000   0.0000   0.0000
     0.0000   0.0000   0.0000   0.0000   0.0000   0.0000   0.0000   0.0000

          k = 0.2900 0.0000 0.0000 ( 10347 PWs)   bands (ev):

   -19.6191 -15.3664  -7.9265  -7.9265   0.6870   0.6870   1.6847   3.3079
     3.3079   3.3639   3.4913   4.3226   4.9477   4.9477   5.3384   6.5167

     occupation numbers 
     1.0000   1.0000   1.0000   1.0000   0.0000   0.0000   0.0000   0.0000
     0.0000   0.0000   0.0000   0.0000   0.0000   0.0000   0.0000   0.0000

          k = 0.3000 0.0000 0.0000 ( 10355 PWs)   bands (ev):

   -19.5471 -15.4751  -7.8005  -7.8005   0.4179   0.4179   1.8126   3.4419
     3.4419   3.4988   3.6187   4.4575   5.0820   5.0820   5.4659   6.6097

     occupation numbers 
     1.0000   1.0000   1.0000   1.0000   0.0000   0.0000   0.0000   0.0000
     0.0000   0.0000   0.0000   0.0000   0.0000   0.0000   0.0000   0.0000

          k = 0.3100 0.0000 0.0000 ( 10375 PWs)   bands (ev):

   -19.4729 -15.5848  -7.6703  -7.6703   0.1506   0.1506   1.9446   3.5804
     3.5804   3.6382   3.7502   4.5968   5.2208   5.2208   5.5975   6.6933

     occupation numbers 
     1.0000   1.0000   1.0000   1.0000   0.0000   0.0000   0.0000   0.0000
     0.0000   0.0000   0.0000   0.0000   0.0000   0.0000   0.0000   0.0000

          k = 0.3200 0.0000 0.0000 ( 10355 PWs)   bands (ev):

   -19.3967 -15.6955  -7.5359  -7.5359  -0.1148  -0.1148   2.0806   3.7234
     3.7234   3.7821   3.8858   4.7408   5.3642   5.3642   5.7332   6.7655

     occupation numbers 
     1.0000   1.0000   1.0000   1.0000   0.0000   0.0000   0.0000   0.0000
     0.0000   0.0000   0.0000   0.0000   0.0000   0.0000   0.0000   0.0000

          k = 0.3300 0.0000 0.0000 ( 10339 PWs)   bands (ev):

   -19.3184 -15.8071  -7.3974  -7.3974  -0.3780  -0.3780   2.2207   3.8710
     3.8710   3.9307   4.0254   4.8893   5.5121   5.5121   5.8729   6.8243

     occupation numbers 
     1.0000   1.0000   1.0000   1.0000   0.0000   0.0000   0.0000   0.0000
     0.0000   0.0000   0.0000   0.0000   0.0000   0.0000   0.0000   0.0000

          k = 0.3400 0.0000 0.0000 ( 10359 PWs)   bands (ev):

   -19.2381 -15.9193  -7.2548  -7.2548  -0.6390  -0.6390   2.3647   4.0231
     4.0231   4.0838   4.1690   5.0424   5.6645   5.6645   6.0166   6.8675

     occupation numbers 
     1.0000   1.0000   1.0000   1.0000   0.0000   0.0000   0.0000   0.0000
     0.0000   0.0000   0.0000   0.0000   0.0000   0.0000   0.0000   0.0000

          k = 0.3500 0.0000 0.0000 ( 10323 PWs)   bands (ev):

   -19.1559 -16.0320  -7.1081  -7.1081  -0.8974  -0.8974   2.5126   4.1798
     4.1798   4.2414   4.3166   5.2001   5.8215   5.8215   6.1640   6.8931

     occupation numbers 
     1.0000   1.0000   1.0000   1.0000   0.0000   0.0000   0.0000   0.0000
     0.0000   0.0000   0.0000   0.0000   0.0000   0.0000   0.0000   0.0000

          k = 0.3600 0.0000 0.0000 ( 10335 PWs)   bands (ev):

   -19.0717 -16.1450  -6.9574  -6.9574  -1.1532  -1.1532   2.6644   4.3409
     4.3409   4.4037   4.4680   5.3623   5.9831   5.9831   6.3150   6.8993

     occupation numbers 
     1.0000   1.0000   1.0000   1.0000   0.0000   0.0000   0.0000   0.0000
     0.0000   0.0000   0.0000   0.0000   0.0000   0.0000   0.0000   0.0000

          k = 0.3700 0.0000 0.0000 ( 10327 PWs)   bands (ev):

   -18.9856 -16.2584  -6.8025  -6.8025  -1.4062  -1.4062   2.8200   4.5066
     4.5066   4.5705   4.6234   5.5291   6.1491   6.1491   6.4688   6.8852

     occupation numbers 
     1.0000   1.0000   1.0000   1.0000   0.0000   0.0000   0.0000   0.0000
     0.0000   0.0000   0.0000   0.0000   0.0000   0.0000   0.0000   0.0000

          k = 0.3800 0.0000 0.0000 ( 10319 PWs)   bands (ev):

   -18.8978 -16.3718  -6.6437  -6.6437  -1.6563  -1.6563   2.9792   4.6768
     4.6768   4.7419   4.7824   5.7005   6.3197   6.3197   6.6225   6.8528

     occupation numbers 
     1.0000   1.0000   1.0000   1.0000   0.0000   0.0000   0.0000   0.0000
     0.0000   0.0000   0.0000   0.0000   0.0000   0.0000   0.0000   0.0000

          k = 0.3900 0.0000 0.0000 ( 10299 PWs)   bands (ev):

   -18.8081 -16.4853  -6.4809  -6.4809  -1.9035  -1.9035   3.1420   4.8515
     4.8515   4.9178   4.9451   5.8765   6.4949   6.4949   6.7348   6.8429

     occupation numbers 
     1.0000   1.0000   1.0000   1.0000   0.0000   0.0000   0.0000   0.0000
     0.0000   0.0000   0.0000   0.0000   0.0000   0.0000   0.0000   0.0000

          k = 0.4000 0.0000 0.0000 ( 10291 PWs)   bands (ev):

   -18.7167 -16.5986  -6.3141  -6.3141  -2.1474  -2.1474   3.3082   5.0308
     5.0308   5.0983   5.1115   6.0570   6.6746   6.6746   6.6859   6.9761

     occupation numbers 
     1.0000   1.0000   1.0000   1.0000   0.0000   0.0000   0.0000   0.0000
     0.0000   0.0000   0.0000   0.0000   0.0000   0.0000   0.0000   0.0000

          k = 0.4100 0.0000 0.0000 ( 10279 PWs)   bands (ev):

   -18.6237 -16.7117  -6.1435  -6.1435  -2.3881  -2.3881   3.4778   5.2145
     5.2145   5.2812   5.2834   6.2421   6.5876   6.8588   6.8588   7.1419

     occupation numbers 
     1.0000   1.0000   1.0000   1.0000   0.0000   0.0000   0.0000   0.0000
     0.0000   0.0000   0.0000   0.0000   0.0000   0.0000   0.0000   0.0000

          k = 0.4200 0.0000 0.0000 ( 10287 PWs)   bands (ev):

   -18.5291 -16.8244  -5.9690  -5.9690  -2.6254  -2.6254   3.6505   5.4027
     5.4027   5.4541   5.4731   6.4317   6.4679   7.0475   7.0475   7.3142

     occupation numbers 
     1.0000   1.0000   1.0000   1.0000   0.0000   0.0000   0.0000   0.0000
     0.0000   0.0000   0.0000   0.0000   0.0000   0.0000   0.0000   0.0000

          k = 0.4300 0.0000 0.0000 ( 10271 PWs)   bands (ev):

   -18.4331 -16.9365  -5.7908  -5.7908  -2.8592  -2.8592   3.8262   5.5955
     5.5955   5.6299   5.6673   6.3318   6.6260   7.2407   7.2407   7.4906

     occupation numbers 
     1.0000   1.0000   1.0000   1.0000   0.0000   0.0000   0.0000   0.0000
     0.0000   0.0000   0.0000   0.0000   0.0000   0.0000   0.0000   0.0000

          k = 0.4400 0.0000 0.0000 ( 10251 PWs)   bands (ev):

   -18.3357 -17.0479  -5.6091  -5.6091  -3.0892  -3.0892   4.0045   5.7928
     5.7928   5.8071   5.8661   6.1837   6.8248   7.4385   7.4385   7.6700

     occupation numbers 
     1.0000   1.0000   1.0000   1.0000   0.0000   0.0000   0.0000   0.0000
     0.0000   0.0000   0.0000   0.0000   0.0000   0.0000   0.0000   0.0000

          k = 0.4500 0.0000 0.0000 ( 10271 PWs)   bands (ev):

   -18.2371 -17.1584  -5.4240  -5.4240  -3.3151  -3.3151   4.1853   5.9590
     5.9945   5.9945   6.0531   6.0695   7.0281   7.6408   7.6408   7.8442

     occupation numbers 
     1.0000   1.0000   1.0000   1.0000   0.0000   0.0000   0.0000   0.0000
     0.0000   0.0000   0.0000   0.0000   0.0000   0.0000   0.0000   0.0000

          k = 0.4600 0.0000 0.0000 ( 10278 PWs)   bands (ev):

   -18.1376 -17.2677  -5.2362  -5.2362  -3.5364  -3.5364   4.3682   5.8402
     6.1874   6.2007   6.2007   6.2775   7.2361   7.7402   7.8472   7.8473

     occupation numbers 
     1.0000   1.0000   1.0000   1.0000   0.0000   0.0000   0.0000   0.0000
     0.0000   0.0000   0.0000   0.0000   0.0000   0.0000   0.0000   0.0000

          k = 0.4700 0.0000 0.0000 ( 10254 PWs)   bands (ev):

   -18.0378 -17.3751  -5.0466  -5.0466  -3.7521  -3.7521   4.5526   5.6671
     6.3724   6.4114   6.4114   6.4900   7.4486   7.5430   7.7699   7.7705

     occupation numbers 
     1.0000   1.0000   1.0000   1.0000   0.0000   0.0000   0.0000   0.0000
     0.0000   0.0000   0.0000   0.0000   0.0000   0.0000   0.0000   0.0000

          k = 0.4800 0.0000 0.0000 ( 10238 PWs)   bands (ev):

   -17.9393 -17.4792  -4.8582  -4.8582  -3.9591  -3.9591   4.7378   5.4877
     6.5616   6.6266   6.6266   6.7071   7.3454   7.5325   7.5327   7.6215

     occupation numbers 
     1.0000   1.0000   1.0000   1.0000   0.0000   0.0000   0.0000   0.0000
     0.0000   0.0000   0.0000   0.0000   0.0000   0.0000   0.0000   0.0000

          k = 0.4900 0.0000 0.0000 ( 10262 PWs)   bands (ev):

   -17.8478 -17.5740  -4.6825  -4.6825  -4.1461  -4.1461   4.9218   5.3067
     6.7524   6.8461   6.8461   6.9287   7.1496   7.2997   7.2997   7.3858

     occupation numbers 
     1.0000   1.0000   1.0000   1.0000   0.0000   0.0000   0.0000   0.0000
     0.0000   0.0000   0.0000   0.0000   0.0000   0.0000   0.0000   0.0000

          k =-0.5000 0.0000 0.0000 ( 10242 PWs)   bands (ev):

   -17.7971 -17.6257  -4.5850  -4.5850  -4.2473  -4.2473   5.0671   5.1623
     6.9141   6.9863   7.0569   7.0569   7.0844   7.0844   7.1508   7.1591

     occupation numbers 
     1.0000   1.0000   1.0000   1.0000   0.0000   0.0000   0.0000   0.0000
     0.0000   0.0000   0.0000   0.0000   0.0000   0.0000   0.0000   0.0000

     highest occupied, lowest unoccupied level (ev):    -4.5850   -4.2473

!    total energy              =     -36.74406378 Ry

     total all-electron energy =      -152.272259 Ry
     estimated scf accuracy    <          1.5E-10 Ry

     The total energy is the sum of the following terms:
     one-electron contribution =     -65.67506566 Ry
     hartree contribution      =      33.79732165 Ry
     xc contribution           =      -9.08739941 Ry
     ewald contribution        =      16.56199481 Ry
     one-center paw contrib.   =     -12.34091516 Ry
      -> PAW hartree energy AE =       9.67507766 Ry
      -> PAW hartree energy PS =      -9.66609464 Ry
      -> PAW xc energy AE      =     -10.72489438 Ry
      -> PAW xc energy PS      =       4.54545373 Ry
      -> total E_H with PAW    =      33.80630466 Ry
      -> total E_XC with PAW   =     -15.26684006 Ry

     convergence has been achieved in   4 iterations

     negative rho (up, down):  1.845E-04 0.000E+00

     Forces acting on atoms (cartesian axes, Ry/au):

     atom    1 type  1   force =    -0.00010403    0.00000000    0.00000000
     atom    2 type  1   force =     0.00010403    0.00000000    0.00000000
     The non-local contrib.  to forces
     atom    1 type  1   force =    -0.07543845    0.00000000    0.00000000
     atom    2 type  1   force =     0.07543115    0.00000000    0.00000000
     The ionic contribution  to forces
     atom    1 type  1   force =    -0.33729692   -0.00000000   -0.00000000
     atom    2 type  1   force =     0.33729692   -0.00000000   -0.00000000
     The local contribution  to forces
     atom    1 type  1   force =     0.40928351    0.00000000    0.00000000
     atom    2 type  1   force =    -0.40926894    0.00000000    0.00000000
     The core correction contribution to forces
     atom    1 type  1   force =     0.00328124   -0.00000000   -0.00000000
     atom    2 type  1   force =    -0.00341662    0.00000000   -0.00000000
     The Hubbard contrib.    to forces
     atom    1 type  1   force =     0.00000000    0.00000000    0.00000000
     atom    2 type  1   force =     0.00000000    0.00000000    0.00000000
     The SCF correction term to forces
     atom    1 type  1   force =     0.00000217    0.00000000   -0.00000000
     atom    2 type  1   force =    -0.00000290    0.00000000    0.00000000

     Total force =     0.000147     Total SCF correction =     0.000004


     Computing stress (Cartesian axis) and pressure


     negative rho (up, down):  1.845E-04 0.000E+00
          total   stress  (Ry/bohr**3)                   (kbar)     P=       -0.06
  -0.00000023   0.00000000   0.00000000           -0.03        0.00        0.00
   0.00000000  -0.00000045   0.00000000            0.00       -0.07        0.00
   0.00000000   0.00000000  -0.00000045            0.00        0.00       -0.07

     kinetic stress (kbar)    624.32      0.00      0.00
                                0.00    907.46      0.00
                                0.00      0.00    907.46

     local   stress (kbar)  -7179.05     -0.00     -0.00
                               -0.00    234.18     -0.00
                               -0.00     -0.00    234.18

     nonloc. stress (kbar)    232.53      0.00      0.00
                                0.00    185.66      0.00
                                0.00      0.00    185.66

     hartree stress (kbar)   2870.38     -0.00      0.00
                               -0.00      0.63      0.00
                                0.00      0.00      0.63

     exc-cor stress (kbar)     -4.17     -0.00     -0.00
                               -0.00    -16.89     -0.00
                               -0.00     -0.00    -16.89

     corecor stress (kbar)   -194.49     -0.00     -0.00
                               -0.00   -189.49     -0.00
                               -0.00     -0.00   -189.49

     ewald   stress (kbar)   3650.44      0.00      0.00
                                0.00  -1121.62      0.00
                                0.00      0.00  -1121.62

     hubbard stress (kbar)      0.00      0.00      0.00
                                0.00      0.00      0.00
                                0.00      0.00      0.00

     DFT-D   stress (kbar)      0.00      0.00      0.00
                                0.00      0.00      0.00
                                0.00      0.00      0.00

     XDM     stress (kbar)      0.00      0.00      0.00
                                0.00      0.00      0.00
                                0.00      0.00      0.00

     dft-nl  stress (kbar)      0.00      0.00      0.00
                                0.00      0.00      0.00
                                0.00      0.00      0.00

     TS-vdW  stress (kbar)      0.00      0.00      0.00
                                0.00      0.00      0.00
                                0.00      0.00      0.00


     Energy error            =      5.0E-08
     Gradient error          =      1.0E-04
     Cell gradient error     =      2.3E-07


     number of scf cycles    =   2
     number of bfgs steps    =   1

     enthalpy old            =     -36.7440637281 Ry
     enthalpy new            =     -36.7440637779 Ry

     CASE: enthalpy_new < enthalpy_old

     small trust_radius: resetting bfgs history

     new trust radius        =       0.0001000000 bohr
     new conv_thr            =            1.0E-10 Ry

     new unit-cell volume =   1731.32343 a.u.^3 (   256.55566 Ang^3 )
     density =      0.15548 g/cm^3

CELL_PARAMETERS (angstrom)
   2.565556631   0.000000000   0.000000000
   0.000000000  10.000000000   0.000000000
   0.000000000   0.000000000  10.000000000

ATOMIC_POSITIONS (angstrom)
C             0.0003727832        5.0000000000        5.0000000000
C             1.2643793263        5.0000000000        5.0000000000



     Writing output data file ./outdir/carbyne.save/
     NEW-OLD atomic charge density approx. for the potential

     Check: negative core charge=   -0.000002

     negative rho (up, down):  1.845E-04 0.000E+00
     extrapolated charge    7.99996, renormalised to    8.00000

     total cpu time spent up to now is       50.8 secs

     Self-consistent Calculation

     iteration #  1     ecut=    50.00 Ry     beta= 0.70
     Davidson diagonalization with overlap
     ethr =  1.00E-06,  avg # of iterations =  1.3

     Threshold (ethr) on eigenvalues was too large:
     Diagonalizing with lowered threshold

     Davidson diagonalization with overlap
     ethr =  8.19E-10,  avg # of iterations =  1.8

     negative rho (up, down):  1.845E-04 0.000E+00

     total cpu time spent up to now is       52.5 secs

     total energy              =     -36.74406377 Ry
     estimated scf accuracy    <       0.00000008 Ry

     iteration #  2     ecut=    50.00 Ry     beta= 0.70
     Davidson diagonalization with overlap
     ethr =  9.43E-10,  avg # of iterations =  2.0

     negative rho (up, down):  1.845E-04 0.000E+00

     total cpu time spent up to now is       53.6 secs

     total energy              =     -36.74406378 Ry
     estimated scf accuracy    <          7.3E-09 Ry

     iteration #  3     ecut=    50.00 Ry     beta= 0.70
     Davidson diagonalization with overlap
     ethr =  9.18E-11,  avg # of iterations =  2.0

     negative rho (up, down):  1.845E-04 0.000E+00

     total cpu time spent up to now is       54.7 secs

     total energy              =     -36.74406379 Ry
     estimated scf accuracy    <          6.0E-09 Ry

     iteration #  4     ecut=    50.00 Ry     beta= 0.70
     Davidson diagonalization with overlap
     ethr =  7.48E-11,  avg # of iterations =  1.0

     negative rho (up, down):  1.845E-04 0.000E+00

     total cpu time spent up to now is       55.7 secs

     End of self-consistent calculation

          k = 0.0000 0.0000 0.0000 ( 10379 PWs)   bands (ev):

   -20.6780 -13.4757  -9.7334  -9.7334  -0.1569   1.3960   1.3960   1.4422
     1.6584   2.4009   3.0326   3.0326   3.5053   4.1738   4.5464   5.9452

     occupation numbers 
     1.0000   1.0000   1.0000   1.0000   0.0000   0.0000   0.0000   0.0000
     0.0000   0.0000   0.0000   0.0000   0.0000   0.0000   0.0000   0.0000

          k = 0.0100 0.0000 0.0000 ( 10379 PWs)   bands (ev):

   -20.6767 -13.4785  -9.7312  -9.7312  -0.1547   1.3983   1.3983   1.4444
     1.6605   2.4032   3.0349   3.0349   3.5075   4.1775   4.5486   5.9481

     occupation numbers 
     1.0000   1.0000   1.0000   1.0000   0.0000   0.0000   0.0000   0.0000
     0.0000   0.0000   0.0000   0.0000   0.0000   0.0000   0.0000   0.0000

          k = 0.0200 0.0000 0.0000 ( 10387 PWs)   bands (ev):

   -20.6729 -13.4867  -9.7247  -9.7247  -0.1481   1.4051   1.4051   1.4513
     1.6671   2.4100   3.0417   3.0417   3.5141   4.1887   4.5555   5.9543

     occupation numbers 
     1.0000   1.0000   1.0000   1.0000   0.0000   0.0000   0.0000   0.0000
     0.0000   0.0000   0.0000   0.0000   0.0000   0.0000   0.0000   0.0000

          k = 0.0300 0.0000 0.0000 ( 10379 PWs)   bands (ev):

   -20.6664 -13.5003  -9.7139  -9.7139  -0.1371   1.4165   1.4165   1.4627
     1.6781   2.4215   3.0531   3.0531   3.5250   4.2074   4.5669   5.9657

     occupation numbers 
     1.0000   1.0000   1.0000   1.0000   0.0000   0.0000   0.0000   0.0000
     0.0000   0.0000   0.0000   0.0000   0.0000   0.0000   0.0000   0.0000

          k = 0.0400 0.0000 0.0000 ( 10355 PWs)   bands (ev):

   -20.6573 -13.5194  -9.6988  -9.6988  -0.1216   1.4324   1.4324   1.4787
     1.6935   2.4374   3.0690   3.0690   3.5404   4.2335   4.5829   5.9826

     occupation numbers 
     1.0000   1.0000   1.0000   1.0000   0.0000   0.0000   0.0000   0.0000
     0.0000   0.0000   0.0000   0.0000   0.0000   0.0000   0.0000   0.0000

          k = 0.0500 0.0000 0.0000 ( 10355 PWs)   bands (ev):

   -20.6457 -13.5437  -9.6794  -9.6794  -0.1018   1.4529   1.4529   1.4993
     1.7132   2.4580   3.0895   3.0895   3.5601   4.2669   4.6035   6.0023

     occupation numbers 
     1.0000   1.0000   1.0000   1.0000   0.0000   0.0000   0.0000   0.0000
     0.0000   0.0000   0.0000   0.0000   0.0000   0.0000   0.0000   0.0000

          k = 0.0600 0.0000 0.0000 ( 10339 PWs)   bands (ev):

   -20.6315 -13.5734  -9.6557  -9.6557  -0.0775   1.4779   1.4779   1.5244
     1.7373   2.4832   3.1146   3.1146   3.5842   4.3074   4.6286   6.0275

     occupation numbers 
     1.0000   1.0000   1.0000   1.0000   0.0000   0.0000   0.0000   0.0000
     0.0000   0.0000   0.0000   0.0000   0.0000   0.0000   0.0000   0.0000

          k = 0.0700 0.0000 0.0000 ( 10347 PWs)   bands (ev):

   -20.6147 -13.6082  -9.6276  -9.6276  -0.0489   1.5074   1.5074   1.5541
     1.7658   2.5129   3.1442   3.1442   3.6127   4.3549   4.6583   6.0573

     occupation numbers 
     1.0000   1.0000   1.0000   1.0000   0.0000   0.0000   0.0000   0.0000
     0.0000   0.0000   0.0000   0.0000   0.0000   0.0000   0.0000   0.0000

          k = 0.0800 0.0000 0.0000 ( 10335 PWs)   bands (ev):

   -20.5954 -13.6480  -9.5953  -9.5953  -0.0158   1.5415   1.5415   1.5884
     1.7987   2.5471   3.1783   3.1783   3.6455   4.4093   4.6926   5.9919

     occupation numbers 
     1.0000   1.0000   1.0000   1.0000   0.0000   0.0000   0.0000   0.0000
     0.0000   0.0000   0.0000   0.0000   0.0000   0.0000   0.0000   0.0000

          k = 0.0900 0.0000 0.0000 ( 10343 PWs)   bands (ev):

   -20.5735 -13.6928  -9.5586  -9.5586   0.0217   1.5802   1.5802   1.6273
     1.8360   2.5860   3.2170   3.2170   3.6828   4.4704   4.7314   5.8079

     occupation numbers 
     1.0000   1.0000   1.0000   1.0000   0.0000   0.0000   0.0000   0.0000
     0.0000   0.0000   0.0000   0.0000   0.0000   0.0000   0.0000   0.0000

          k = 0.1000 0.0000 0.0000 ( 10355 PWs)   bands (ev):

   -20.5491 -13.7424  -9.5176  -9.5176   0.0635   1.6233   1.6233   1.6707
     1.8776   2.6294   3.2603   3.2603   3.7244   4.5379   4.7749   5.6094

     occupation numbers 
     1.0000   1.0000   1.0000   1.0000   0.0000   0.0000   0.0000   0.0000
     0.0000   0.0000   0.0000   0.0000   0.0000   0.0000   0.0000   0.0000

          k = 0.1100 0.0000 0.0000 ( 10375 PWs)   bands (ev):

   -20.5221 -13.7966  -9.4723  -9.4723   0.1098   1.6711   1.6711   1.7187
     1.9237   2.6774   3.3081   3.3081   3.7703   4.6115   4.8228   5.3981

     occupation numbers 
     1.0000   1.0000   1.0000   1.0000   0.0000   0.0000   0.0000   0.0000
     0.0000   0.0000   0.0000   0.0000   0.0000   0.0000   0.0000   0.0000

          k = 0.1200 0.0000 0.0000 ( 10367 PWs)   bands (ev):

   -20.4926 -13.8553  -9.4228  -9.4228   0.1604   1.7233   1.7233   1.7712
     1.9740   2.7299   3.3604   3.3604   3.8207   4.6912   4.8754   5.1757

     occupation numbers 
[...]

          k = 0.2200 0.0000 0.0000 ( 10403 PWs)   bands (ev):

   -20.0615 -14.6506  -8.6914  -8.6914   0.9067   2.4881   2.4881   2.5482
     2.6066   2.6066   2.7167   3.5069   4.1352   4.1352   4.5632   5.7325

     occupation numbers 
     1.0000   1.0000   1.0000   1.0000   0.0000   0.0000   0.0000   0.0000
     0.0000   0.0000   0.0000   0.0000   0.0000   0.0000   0.0000   0.0000

          k = 0.2300 0.0000 0.0000 ( 10379 PWs)   bands (ev):

   -20.0051 -14.7469  -8.5948  -8.5948   1.0051   2.3214   2.3214   2.6021
     2.6021   2.6510   2.8146   3.6097   4.2376   4.2376   4.6613   5.8503

     occupation numbers 
     1.0000   1.0000   1.0000   1.0000   0.0000   0.0000   0.0000   0.0000
     0.0000   0.0000   0.0000   0.0000   0.0000   0.0000   0.0000   0.0000

          k = 0.2400 0.0000 0.0000 ( 10367 PWs)   bands (ev):

   -19.9465 -14.8455  -8.4940  -8.4940   1.1078   2.0493   2.0493   2.7069
     2.7069   2.7584   2.9169   3.7171   4.3446   4.3446   4.7635   5.9679

     occupation numbers 
     1.0000   1.0000   1.0000   1.0000   0.0000   0.0000   0.0000   0.0000
     0.0000   0.0000   0.0000   0.0000   0.0000   0.0000   0.0000   0.0000

          k = 0.2500 0.0000 0.0000 ( 10359 PWs)   bands (ev):

   -19.8855 -14.9461  -8.3889  -8.3889   1.2148   1.7758   1.7758   2.8178
     2.8178   2.8704   3.0233   3.8291   4.4561   4.4561   4.8701   6.0844

     occupation numbers 
     1.0000   1.0000   1.0000   1.0000   0.0000   0.0000   0.0000   0.0000
     0.0000   0.0000   0.0000   0.0000   0.0000   0.0000   0.0000   0.0000

          k = 0.2600 0.0000 0.0000 ( 10367 PWs)   bands (ev):

   -19.8222 -15.0488  -8.2796  -8.2796   1.3260   1.5024   1.5024   2.9334
     2.9334   2.9869   3.1340   3.9456   4.5722   4.5722   4.9808   6.1988

     occupation numbers 
     1.0000   1.0000   1.0000   1.0000   0.0000   0.0000   0.0000   0.0000
     0.0000   0.0000   0.0000   0.0000   0.0000   0.0000   0.0000   0.0000

          k = 0.2700 0.0000 0.0000 ( 10351 PWs)   bands (ev):

   -19.7568 -15.1531  -8.1661  -8.1661   1.2296   1.2296   1.4414   3.0537
     3.0537   3.1081   3.2489   4.0667   4.6928   4.6928   5.0958   6.3100

     occupation numbers 
     1.0000   1.0000   1.0000   1.0000   0.0000   0.0000   0.0000   0.0000
     0.0000   0.0000   0.0000   0.0000   0.0000   0.0000   0.0000   0.0000

          k = 0.2800 0.0000 0.0000 ( 10351 PWs)   bands (ev):

   -19.6891 -15.2591  -8.0484  -8.0484   0.9578   0.9578   1.5610   3.1785
     3.1785   3.2337   3.3680   4.1924   4.8180   4.8180   5.2151   6.4166

     occupation numbers 
     1.0000   1.0000   1.0000   1.0000   0.0000   0.0000   0.0000   0.0000
     0.0000   0.0000   0.0000   0.0000   0.0000   0.0000   0.0000   0.0000

          k = 0.2900 0.0000 0.0000 ( 10347 PWs)   bands (ev):

   -19.6192 -15.3665  -7.9266  -7.9266   0.6871   0.6871   1.6847   3.3080
     3.3080   3.3640   3.4913   4.3227   4.9477   4.9477   5.3384   6.5172

     occupation numbers 
     1.0000   1.0000   1.0000   1.0000   0.0000   0.0000   0.0000   0.0000
     0.0000   0.0000   0.0000   0.0000   0.0000   0.0000   0.0000   0.0000

          k = 0.3000 0.0000 0.0000 ( 10355 PWs)   bands (ev):

   -19.5471 -15.4751  -7.8005  -7.8005   0.4180   0.4180   1.8126   3.4419
     3.4419   3.4988   3.6187   4.4575   5.0820   5.0820   5.4660   6.6102

     occupation numbers 
     1.0000   1.0000   1.0000   1.0000   0.0000   0.0000   0.0000   0.0000
     0.0000   0.0000   0.0000   0.0000   0.0000   0.0000   0.0000   0.0000

          k = 0.3100 0.0000 0.0000 ( 10375 PWs)   bands (ev):

   -19.4730 -15.5849  -7.6703  -7.6703   0.1507   0.1507   1.9446   3.5804
     3.5804   3.6382   3.7502   4.5969   5.2208   5.2208   5.5976   6.6938

     occupation numbers 
     1.0000   1.0000   1.0000   1.0000   0.0000   0.0000   0.0000   0.0000
     0.0000   0.0000   0.0000   0.0000   0.0000   0.0000   0.0000   0.0000

          k = 0.3200 0.0000 0.0000 ( 10355 PWs)   bands (ev):

   -19.3968 -15.6956  -7.5360  -7.5360  -0.1147  -0.1147   2.0807   3.7235
     3.7235   3.7822   3.8858   4.7409   5.3642   5.3642   5.7333   6.7660

     occupation numbers 
     1.0000   1.0000   1.0000   1.0000   0.0000   0.0000   0.0000   0.0000
     0.0000   0.0000   0.0000   0.0000   0.0000   0.0000   0.0000   0.0000

          k = 0.3300 0.0000 0.0000 ( 10339 PWs)   bands (ev):

   -19.3185 -15.8072  -7.3975  -7.3975  -0.3779  -0.3779   2.2207   3.8711
     3.8711   3.9307   4.0255   4.8894   5.5121   5.5121   5.8730   6.8248

     occupation numbers 
     1.0000   1.0000   1.0000   1.0000   0.0000   0.0000   0.0000   0.0000
     0.0000   0.0000   0.0000   0.0000   0.0000   0.0000   0.0000   0.0000

          k = 0.3400 0.0000 0.0000 ( 10359 PWs)   bands (ev):

   -19.2382 -15.9193  -7.2549  -7.2549  -0.6389  -0.6389   2.3648   4.0232
     4.0232   4.0838   4.1691   5.0425   5.6646   5.6646   6.0167   6.8679

     occupation numbers 
     1.0000   1.0000   1.0000   1.0000   0.0000   0.0000   0.0000   0.0000
     0.0000   0.0000   0.0000   0.0000   0.0000   0.0000   0.0000   0.0000

          k = 0.3500 0.0000 0.0000 ( 10323 PWs)   bands (ev):

   -19.1559 -16.0320  -7.1081  -7.1081  -0.8973  -0.8973   2.5127   4.1798
     4.1798   4.2415   4.3167   5.2002   5.8216   5.8216   6.1641   6.8935

     occupation numbers 
     1.0000   1.0000   1.0000   1.0000   0.0000   0.0000   0.0000   0.0000
     0.0000   0.0000   0.0000   0.0000   0.0000   0.0000   0.0000   0.0000

          k = 0.3600 0.0000 0.0000 ( 10335 PWs)   bands (ev):

   -19.0718 -16.1451  -6.9574  -6.9574  -1.1531  -1.1531   2.6645   4.3410
     4.3410   4.4037   4.4681   5.3624   5.9831   5.9831   6.3151   6.8996

     occupation numbers 
     1.0000   1.0000   1.0000   1.0000   0.0000   0.0000   0.0000   0.0000
     0.0000   0.0000   0.0000   0.0000   0.0000   0.0000   0.0000   0.0000

          k = 0.3700 0.0000 0.0000 ( 10327 PWs)   bands (ev):

   -18.9857 -16.2585  -6.8025  -6.8025  -1.4061  -1.4061   2.8200   4.5067
     4.5067   4.5706   4.6234   5.5292   6.1492   6.1492   6.4690   6.8855

     occupation numbers 
     1.0000   1.0000   1.0000   1.0000   0.0000   0.0000   0.0000   0.0000
     0.0000   0.0000   0.0000   0.0000   0.0000   0.0000   0.0000   0.0000

          k = 0.3800 0.0000 0.0000 ( 10315 PWs)   bands (ev):

   -18.8978 -16.3719  -6.6437  -6.6437  -1.6563  -1.6563   2.9793   4.6769
     4.6769   4.7420   4.7825   5.7006   6.3198   6.3198   6.6227   6.8530

     occupation numbers 
     1.0000   1.0000   1.0000   1.0000   0.0000   0.0000   0.0000   0.0000
     0.0000   0.0000   0.0000   0.0000   0.0000   0.0000   0.0000   0.0000

          k = 0.3900 0.0000 0.0000 ( 10299 PWs)   bands (ev):

   -18.8081 -16.4854  -6.4809  -6.4809  -1.9034  -1.9034   3.1420   4.8516
     4.8516   4.9179   4.9453   5.8766   6.4950   6.4950   6.7352   6.8429

     occupation numbers 
     1.0000   1.0000   1.0000   1.0000   0.0000   0.0000   0.0000   0.0000
     0.0000   0.0000   0.0000   0.0000   0.0000   0.0000   0.0000   0.0000

          k = 0.4000 0.0000 0.0000 ( 10291 PWs)   bands (ev):

   -18.7168 -16.5987  -6.3141  -6.3141  -2.1474  -2.1474   3.3083   5.0308
     5.0308   5.0984   5.1116   6.0571   6.6746   6.6746   6.6862   6.9762

     occupation numbers 
     1.0000   1.0000   1.0000   1.0000   0.0000   0.0000   0.0000   0.0000
     0.0000   0.0000   0.0000   0.0000   0.0000   0.0000   0.0000   0.0000

          k = 0.4100 0.0000 0.0000 ( 10279 PWs)   bands (ev):

   -18.6238 -16.7118  -6.1434  -6.1434  -2.3881  -2.3881   3.4779   5.2146
     5.2146   5.2813   5.2835   6.2422   6.5879   6.8589   6.8589   7.1420

     occupation numbers 
     1.0000   1.0000   1.0000   1.0000   0.0000   0.0000   0.0000   0.0000
     0.0000   0.0000   0.0000   0.0000   0.0000   0.0000   0.0000   0.0000

          k = 0.4200 0.0000 0.0000 ( 10287 PWs)   bands (ev):

   -18.5292 -16.8245  -5.9689  -5.9689  -2.6254  -2.6254   3.6506   5.4028
     5.4028   5.4543   5.4732   6.4318   6.4681   7.0476   7.0476   7.3143

     occupation numbers 
     1.0000   1.0000   1.0000   1.0000   0.0000   0.0000   0.0000   0.0000
     0.0000   0.0000   0.0000   0.0000   0.0000   0.0000   0.0000   0.0000

          k = 0.4300 0.0000 0.0000 ( 10271 PWs)   bands (ev):

   -18.4331 -16.9366  -5.7907  -5.7907  -2.8592  -2.8592   3.8263   5.5956
     5.5956   5.6301   5.6674   6.3320   6.6261   7.2408   7.2408   7.4908

     occupation numbers 
     1.0000   1.0000   1.0000   1.0000   0.0000   0.0000   0.0000   0.0000
     0.0000   0.0000   0.0000   0.0000   0.0000   0.0000   0.0000   0.0000

          k = 0.4400 0.0000 0.0000 ( 10251 PWs)   bands (ev):

   -18.3357 -17.0480  -5.6090  -5.6090  -3.0892  -3.0892   4.0046   5.7929
     5.7929   5.8073   5.8663   6.1839   6.8249   7.4386   7.4386   7.6702

     occupation numbers 
     1.0000   1.0000   1.0000   1.0000   0.0000   0.0000   0.0000   0.0000
     0.0000   0.0000   0.0000   0.0000   0.0000   0.0000   0.0000   0.0000

          k = 0.4500 0.0000 0.0000 ( 10271 PWs)   bands (ev):

   -18.2371 -17.1586  -5.4239  -5.4239  -3.3151  -3.3151   4.1855   5.9593
     5.9946   5.9946   6.0531   6.0696   7.0282   7.6409   7.6412   7.8444

     occupation numbers 
     1.0000   1.0000   1.0000   1.0000   0.0000   0.0000   0.0000   0.0000
     0.0000   0.0000   0.0000   0.0000   0.0000   0.0000   0.0000   0.0000

          k = 0.4600 0.0000 0.0000 ( 10278 PWs)   bands (ev):

   -18.1376 -17.2679  -5.2361  -5.2361  -3.5365  -3.5365   4.3683   5.8404
     6.1875   6.2008   6.2008   6.2776   7.2362   7.7404   7.8473   7.8480

     occupation numbers 
     1.0000   1.0000   1.0000   1.0000   0.0000   0.0000   0.0000   0.0000
     0.0000   0.0000   0.0000   0.0000   0.0000   0.0000   0.0000   0.0000

          k = 0.4700 0.0000 0.0000 ( 10254 PWs)   bands (ev):

   -18.0378 -17.3753  -5.0465  -5.0465  -3.7522  -3.7522   4.5528   5.6672
     6.3725   6.4115   6.4115   6.4901   7.4487   7.5432   7.7699   7.7712

     occupation numbers 
     1.0000   1.0000   1.0000   1.0000   0.0000   0.0000   0.0000   0.0000
     0.0000   0.0000   0.0000   0.0000   0.0000   0.0000   0.0000   0.0000

          k = 0.4800 0.0000 0.0000 ( 10238 PWs)   bands (ev):

   -17.9392 -17.4794  -4.8580  -4.8580  -3.9593  -3.9593   4.7380   5.4879
     6.5617   6.6267   6.6267   6.7072   7.3456   7.5326   7.5331   7.6632

     occupation numbers 
     1.0000   1.0000   1.0000   1.0000   0.0000   0.0000   0.0000   0.0000
     0.0000   0.0000   0.0000   0.0000   0.0000   0.0000   0.0000   0.0000

          k = 0.4900 0.0000 0.0000 ( 10254 PWs)   bands (ev):

   -17.8476 -17.5743  -4.6821  -4.6821  -4.1464  -4.1464   4.9220   5.3068
     6.7525   6.8462   6.8462   6.9289   7.1498   7.2998   7.2998   7.3862

     occupation numbers 
     1.0000   1.0000   1.0000   1.0000   0.0000   0.0000   0.0000   0.0000
     0.0000   0.0000   0.0000   0.0000   0.0000   0.0000   0.0000   0.0000

          k =-0.5000 0.0000 0.0000 ( 10242 PWs)   bands (ev):

   -17.7968 -17.6262  -4.5844  -4.5844  -4.2478  -4.2478   5.0674   5.1623
     6.9144   6.9863   7.0570   7.0570   7.0845   7.0845   7.1509   7.1593

     occupation numbers 
     1.0000   1.0000   1.0000   1.0000   0.0000   0.0000   0.0000   0.0000
     0.0000   0.0000   0.0000   0.0000   0.0000   0.0000   0.0000   0.0000

     highest occupied, lowest unoccupied level (ev):    -4.5844   -4.2478

!    total energy              =     -36.74406378 Ry

     total all-electron energy =      -152.272259 Ry
     estimated scf accuracy    <          2.9E-11 Ry

     The total energy is the sum of the following terms:
     one-electron contribution =     -65.67586892 Ry
     hartree contribution      =      33.79771308 Ry
     xc contribution           =      -9.08742371 Ry
     ewald contribution        =      16.56243273 Ry
     one-center paw contrib.   =     -12.34091695 Ry
      -> PAW hartree energy AE =       9.67533467 Ry
      -> PAW hartree energy PS =      -9.66635149 Ry
      -> PAW xc energy AE      =     -10.72495653 Ry
      -> PAW xc energy PS      =       4.54551457 Ry
      -> total E_H with PAW    =      33.80669625 Ry
      -> total E_XC with PAW   =     -15.26686567 Ry

     convergence has been achieved in   8 iterations

     negative rho (up, down):  1.845E-04 0.000E+00

     Forces acting on atoms (cartesian axes, Ry/au):

     atom    1 type  1   force =    -0.00002247    0.00000000    0.00000000
     atom    2 type  1   force =     0.00002247    0.00000000    0.00000000
     The non-local contrib.  to forces
     atom    1 type  1   force =    -0.07517057    0.00000000    0.00000000
     atom    2 type  1   force =     0.07516667    0.00000000    0.00000000
     The ionic contribution  to forces
     atom    1 type  1   force =    -0.33616272   -0.00000000   -0.00000000
     atom    2 type  1   force =     0.33616272   -0.00000000   -0.00000000
     The local contribution  to forces
     atom    1 type  1   force =     0.40797557    0.00000000    0.00000000
     atom    2 type  1   force =    -0.40796463    0.00000000    0.00000000
     The core correction contribution to forces
     atom    1 type  1   force =     0.00327016   -0.00000000   -0.00000000
     atom    2 type  1   force =    -0.00340589   -0.00000000   -0.00000000
     The Hubbard contrib.    to forces
     atom    1 type  1   force =     0.00000000    0.00000000    0.00000000
     atom    2 type  1   force =     0.00000000    0.00000000    0.00000000
     The SCF correction term to forces
     atom    1 type  1   force =     0.00000083    0.00000000    0.00000000
     atom    2 type  1   force =    -0.00000066    0.00000000   -0.00000000

     Total force =     0.000032     Total SCF correction =     0.000001


     Computing stress (Cartesian axis) and pressure


     negative rho (up, down):  1.845E-04 0.000E+00
          total   stress  (Ry/bohr**3)                   (kbar)     P=       -0.05
  -0.00000014   0.00000000   0.00000000           -0.02        0.00        0.00
   0.00000000  -0.00000046   0.00000000            0.00       -0.07        0.00
   0.00000000   0.00000000  -0.00000046            0.00        0.00       -0.07

     kinetic stress (kbar)    624.33      0.00      0.00
                                0.00    907.48      0.00
                                0.00      0.00    907.48

     local   stress (kbar)  -7179.23      0.00      0.00
                                0.00    234.19      0.00
                                0.00      0.00    234.19

     nonloc. stress (kbar)    232.54      0.00      0.00
                                0.00    185.67      0.00
                                0.00      0.00    185.67

     hartree stress (kbar)   2870.45      0.00      0.00
                                0.00      0.63      0.00
                                0.00      0.00      0.63

     exc-cor stress (kbar)     -4.17      0.00     -0.00
                                0.00    -16.89      0.00
                               -0.00      0.00    -16.89

     corecor stress (kbar)   -194.49     -0.00     -0.00
                               -0.00   -189.49     -0.00
                               -0.00     -0.00   -189.49

     ewald   stress (kbar)   3650.55     -0.00     -0.00
                               -0.00  -1121.64      0.00
                               -0.00      0.00  -1121.64

     hubbard stress (kbar)      0.00      0.00      0.00
                                0.00      0.00      0.00
                                0.00      0.00      0.00

     DFT-D   stress (kbar)      0.00      0.00      0.00
                                0.00      0.00      0.00
                                0.00      0.00      0.00

     XDM     stress (kbar)      0.00      0.00      0.00
                                0.00      0.00      0.00
                                0.00      0.00      0.00

     dft-nl  stress (kbar)      0.00      0.00      0.00
                                0.00      0.00      0.00
                                0.00      0.00      0.00

     TS-vdW  stress (kbar)      0.00      0.00      0.00
                                0.00      0.00      0.00
                                0.00      0.00      0.00



     Writing output data file ./outdir/carbyne.save/
 
     init_run     :     17.55s CPU     11.52s WALL (       2 calls)
     electrons    :     69.12s CPU     36.41s WALL (       5 calls)
     update_pot   :     28.93s CPU     16.10s WALL (       3 calls)
     forces       :     29.57s CPU     14.88s WALL (       5 calls)
     stress       :     54.48s CPU     27.47s WALL (       5 calls)

     Called by init_run:
     wfcinit      :      1.14s CPU      1.29s WALL (       2 calls)
     wfcinit:atom :      0.01s CPU      0.01s WALL (       4 calls)
     wfcinit:wfcr :      1.03s CPU      1.21s WALL (       4 calls)
     potinit      :      6.75s CPU      3.51s WALL (       2 calls)
     hinit0       :      9.17s CPU      6.31s WALL (       2 calls)

     Called by electrons:
     c_bands      :     37.15s CPU     18.98s WALL (      29 calls)
     sum_band     :     11.20s CPU      5.77s WALL (      29 calls)
     v_of_rho     :     17.04s CPU      8.79s WALL (      31 calls)
     v_h          :      1.06s CPU      0.53s WALL (      31 calls)
     v_xc         :     20.90s CPU     10.78s WALL (      41 calls)
     newd         :      1.16s CPU      0.64s WALL (      31 calls)
     PAW_pot      :      1.88s CPU      1.13s WALL (      34 calls)
     mix_rho      :      2.47s CPU      2.09s WALL (      29 calls)

     Called by c_bands:
     init_us_2    :      0.40s CPU      0.21s WALL (     146 calls)
     cegterg      :     33.86s CPU     17.22s WALL (      58 calls)

     Called by sum_band:
     sum_band:wei :      0.02s CPU      0.01s WALL (      29 calls)
     sum_band:loo :      7.08s CPU      3.59s WALL (      29 calls)
     sum_band:buf :      0.14s CPU      0.07s WALL (      58 calls)
     sum_band:ini :      0.16s CPU      0.08s WALL (      58 calls)
     sum_band:cal :      0.16s CPU      0.08s WALL (      64 calls)
     sum_band:bec :      0.06s CPU      0.05s WALL (      64 calls)
     addusdens    :      0.86s CPU      0.48s WALL (      29 calls)
     addusd:skk   :      0.01s CPU      0.00s WALL (      29 calls)
     addusd:dgemm :      0.20s CPU      0.14s WALL (      29 calls)
     addusd:qvan2 :      0.16s CPU      0.08s WALL (      29 calls)

     Called by *egterg:
     cdiaghg      :      0.34s CPU      0.79s WALL (     249 calls)
     cegterg:over :      1.12s CPU      0.57s WALL (     203 calls)
     cegterg:upda :      0.84s CPU      0.43s WALL (     203 calls)
     cegterg:last :      2.09s CPU      1.06s WALL (     142 calls)
     h_psi        :     29.09s CPU     14.80s WALL (     265 calls)
     s_psi        :      0.39s CPU      0.20s WALL (     265 calls)
     g_psi        :      0.15s CPU      0.08s WALL (     203 calls)

     Called by h_psi:
     h_psi:calbec :      0.60s CPU      0.35s WALL (     265 calls)
     vloc_psi     :     27.75s CPU     14.05s WALL (     265 calls)
     add_vuspsi   :      0.46s CPU      0.24s WALL (     265 calls)

     General routines
     calbec       :      0.87s CPU      0.49s WALL (     379 calls)
     fft          :      7.18s CPU      4.27s WALL (     524 calls)
     ffts         :      0.28s CPU      0.15s WALL (      60 calls)
     fftw         :     25.71s CPU     13.01s WALL (    6106 calls)
     interpolate  :      1.01s CPU      0.52s WALL (      31 calls)
 
     Parallel routines

     PAW routines
     PAW_pot      :      1.88s CPU      1.13s WALL (      34 calls)
     PAW_symme    :      0.18s CPU      0.09s WALL (      63 calls)
 
     PWSCF        :   3m20.91s CPU   1m48.42s WALL

 
   This run was terminated on:  20:30:52  24Jun2021            

=------------------------------------------------------------------------------=
   JOB DONE.
=------------------------------------------------------------------------------=
