
     Program BANDS v.6.7MaX starts on 13Jun2021 at 16:20:38 

     This program is part of the open-source Quantum ESPRESSO suite
     for quantum simulation of materials; please cite
         "P. Giannozzi et al., J. Phys.:Condens. Matter 21 395502 (2009);
         "P. Giannozzi et al., J. Phys.:Condens. Matter 29 465901 (2017);
          URL http://www.quantum-espresso.org", 
     in publications or presentations arising from this work. More details at
     http://www.quantum-espresso.org/quote

     Parallel version (MPI & OpenMP), running on      56 processor cores
     Number of MPI processes:                28
     Threads/MPI process:                     2

     MPI processes distributed on     1 nodes
     K-points division:     npool     =      28

     Reading xml data from directory:

     ./outdir/carbyne.save/
     file C.pbe-n-kjpaw_psl.1.0.0.UPF: wavefunction(s)  2S 2P renormalized

     IMPORTANT: XC functional enforced from input :
     Exchange-correlation= PBE
                           (   1   4   3   4   0   0   0)
     Any further DFT definition will be discarded
     Please, verify this is what you really want

 
     G-vector sticks info
     --------------------
     sticks:   dense  smooth     PW     G-vecs:    dense   smooth      PW
     Sum       56853   22733   6777              1307799   330385   53475
 

     negative rho (up, down):  5.469E-04 0.000E+00
     Reading collected, re-writing distributed wavefunctions
     high-symmetry point:  0.0000 0.0000-3.8971   x coordinate   0.0000
     high-symmetry point:  0.0000 0.0000 0.0000   x coordinate   3.8971
     high-symmetry point:  0.0000 0.0000 3.8971   x coordinate   7.7943

     Plottable bands (eV) written to file carbyne.bands.dat.gnu
     Bands written to file carbyne.bands.dat

 **************************************************************************

                    xk=(   0.00000,   0.00000,  -3.89714  )

     point group C_4v (4mm) 
     there are  5 classes
     the character table:

       E     2C4   C2    2s_v  2s_d 
A_1    1.00  1.00  1.00  1.00  1.00
A_2    1.00  1.00  1.00 -1.00 -1.00
B_1    1.00 -1.00  1.00  1.00 -1.00
B_2    1.00 -1.00  1.00 -1.00  1.00
E      2.00  0.00 -2.00  0.00  0.00

     the symmetry operations in each class and the name of the first element:

     E        1
                                                                 
     2C4      3    4
                                                                 
     C2       2
                                                                 
     2s_v     5    6
                                                                 
     2s_d     7    8
                                                                 

     Band symmetry, C_4v (4mm)  point group:

     e(  1 -  1) =    -18.42454  eV     1   --> A_1  G_1 D_1   
     e(  2 -  2) =    -18.15929  eV     1   --> A_1  G_1 D_1   
     e(  3 -  4) =     -5.26209  eV     2   --> E    G_5 D_5   
     e(  5 -  6) =     -4.73801  eV     2   --> E    G_5 D_5   
     e(  7 -  7) =      4.55678  eV     1   --> A_1  G_1 D_1   
     e(  8 -  8) =      4.73194  eV     1   --> A_1  G_1 D_1   

 **************************************************************************

 **************************************************************************

                    xk=(   0.00000,   0.00000,  -3.85817  )

     Band symmetry, C_4v (4mm)  point group:

     e(  1 -  1) =    -18.43475  eV     1   --> A_1  G_1 D_1   
     e(  2 -  2) =    -18.14881  eV     1   --> A_1  G_1 D_1   
     e(  3 -  4) =     -5.28156  eV     2   --> E    G_5 D_5   
     e(  5 -  6) =     -4.71761  eV     2   --> E    G_5 D_5   
     e(  7 -  7) =      4.51941  eV     1   --> A_1  G_1 D_1   
     e(  8 -  8) =      4.76889  eV     1   --> A_1  G_1 D_1   

 **************************************************************************

 **************************************************************************

                    xk=(   0.00000,   0.00000,  -3.81920  )

     Band symmetry, C_4v (4mm)  point group:

     e(  1 -  1) =    -18.46164  eV     1   --> A_1  G_1 D_1   
     e(  2 -  2) =    -18.12110  eV     1   --> A_1  G_1 D_1   
     e(  3 -  4) =     -5.33292  eV     2   --> E    G_5 D_5   
     e(  5 -  6) =     -4.66346  eV     2   --> E    G_5 D_5   
     e(  7 -  7) =      4.44556  eV     1   --> A_1  G_1 D_1   
     e(  8 -  8) =      4.84144  eV     1   --> A_1  G_1 D_1   

 **************************************************************************

 **************************************************************************

                    xk=(   0.00000,   0.00000,  -3.78022  )

     Band symmetry, C_4v (4mm)  point group:

     e(  1 -  1) =    -18.49862  eV     1   --> A_1  G_1 D_1   
     e(  2 -  2) =    -18.08275  eV     1   --> A_1  G_1 D_1   
     e(  3 -  4) =     -5.40361  eV     2   --> E    G_5 D_5   
     e(  5 -  6) =     -4.58810  eV     2   --> E    G_5 D_5   
     e(  7 -  7) =      4.36243  eV     1   --> A_1  G_1 D_1   
     e(  8 -  8) =      4.92229  eV     1   --> A_1  G_1 D_1   

 **************************************************************************

 **************************************************************************

                    xk=(   0.00000,   0.00000,  -3.74125  )

     Band symmetry, C_4v (4mm)  point group:

     e(  1 -  1) =    -18.54105  eV     1   --> A_1  G_1 D_1   
     e(  2 -  2) =    -18.03839  eV     1   --> A_1  G_1 D_1   
     e(  3 -  4) =     -5.48469  eV     2   --> E    G_5 D_5   
     e(  5 -  6) =     -4.50050  eV     2   --> E    G_5 D_5   
     e(  7 -  7) =      4.27623  eV     1   --> A_1  G_1 D_1   
     e(  8 -  8) =      5.00496  eV     1   --> A_1  G_1 D_1   

 **************************************************************************

 **************************************************************************

                    xk=(   0.00000,   0.00000,  -3.70228  )

     Band symmetry, C_4v (4mm)  point group:

     e(  1 -  1) =    -18.58642  eV     1   --> A_1  G_1 D_1   
     e(  2 -  2) =    -17.99055  eV     1   --> A_1  G_1 D_1   
     e(  3 -  4) =     -5.57124  eV     2   --> E    G_5 D_5   
     e(  5 -  6) =     -4.40556  eV     2   --> E    G_5 D_5   
     e(  7 -  7) =      4.18874  eV     1   --> A_1  G_1 D_1   
     e(  8 -  8) =      5.08587  eV     1   --> A_1  G_1 D_1   

 **************************************************************************

 **************************************************************************

                    xk=(   0.00000,   0.00000,  -3.66331  )

     Band symmetry, C_4v (4mm)  point group:

     e(  1 -  1) =    -18.63342  eV     1   --> A_1  G_1 D_1   
     e(  2 -  2) =    -17.94055  eV     1   --> A_1  G_1 D_1   
     e(  3 -  4) =     -5.66069  eV     2   --> E    G_5 D_5   
     e(  5 -  6) =     -4.30586  eV     2   --> E    G_5 D_5   
     e(  7 -  7) =      4.10068  eV     1   --> A_1  G_1 D_1   
     e(  8 -  8) =      5.08666  eV     1   --> A_1  G_1 D_1   

 **************************************************************************

 **************************************************************************

                    xk=(   0.00000,   0.00000,  -3.62434  )

     Band symmetry, C_4v (4mm)  point group:

     e(  1 -  1) =    -18.68131  eV     1   --> A_1  G_1 D_1   
     e(  2 -  2) =    -17.88910  eV     1   --> A_1  G_1 D_1   
     e(  3 -  4) =     -5.75162  eV     2   --> E    G_5 D_5   
     e(  5 -  6) =     -4.20282  eV     2   --> E    G_5 D_5   
     e(  7 -  7) =      4.01241  eV     1   --> A_1  G_1 D_1   
     e(  8 -  8) =      4.98466  eV     1   --> A_1  G_1 D_1   

 **************************************************************************

 **************************************************************************

                    xk=(   0.00000,   0.00000,  -3.58537  )

     Band symmetry, C_4v (4mm)  point group:

     e(  1 -  1) =    -18.72969  eV     1   --> A_1  G_1 D_1   
     e(  2 -  2) =    -17.83663  eV     1   --> A_1  G_1 D_1   
     e(  3 -  4) =     -5.84322  eV     2   --> E    G_5 D_5   
     e(  5 -  6) =     -4.09726  eV     2   --> E    G_5 D_5   
     e(  7 -  7) =      3.92413  eV     1   --> A_1  G_1 D_1   
     e(  8 -  8) =      4.88080  eV     1   --> A_1  G_1 D_1   

 **************************************************************************

 **************************************************************************

                    xk=(   0.00000,   0.00000,  -3.54640  )

     Band symmetry, C_4v (4mm)  point group:

     e(  1 -  1) =    -18.77828  eV     1   --> A_1  G_1 D_1   
     e(  2 -  2) =    -17.78340  eV     1   --> A_1  G_1 D_1   
     e(  3 -  4) =     -5.93498  eV     2   --> E    G_5 D_5   
     e(  5 -  6) =     -3.98969  eV     2   --> E    G_5 D_5   
     e(  7 -  7) =      3.83600  eV     1   --> A_1  G_1 D_1   
     e(  8 -  8) =      4.77764  eV     1   --> A_1  G_1 D_1   

 **************************************************************************

 **************************************************************************

                    xk=(   0.00000,   0.00000,  -3.50742  )

     Band symmetry, C_4v (4mm)  point group:

     e(  1 -  1) =    -18.82694  eV     1   --> A_1  G_1 D_1   
     e(  2 -  2) =    -17.72957  eV     1   --> A_1  G_1 D_1   
     e(  3 -  4) =     -6.02658  eV     2   --> E    G_5 D_5   
     e(  5 -  6) =     -3.88041  eV     2   --> E    G_5 D_5   
     e(  7 -  7) =      3.74812  eV     1   --> A_1  G_1 D_1   
     e(  8 -  8) =      4.67546  eV     1   --> A_1  G_1 D_1   

 **************************************************************************

 **************************************************************************

                    xk=(   0.00000,   0.00000,  -3.46845  )

     Band symmetry, C_4v (4mm)  point group:

     e(  1 -  1) =    -18.87554  eV     1   --> A_1  G_1 D_1   
     e(  2 -  2) =    -17.67528  eV     1   --> A_1  G_1 D_1   
     e(  3 -  4) =     -6.11781  eV     2   --> E    G_5 D_5   
     e(  5 -  6) =     -3.76967  eV     2   --> E    G_5 D_5   
     e(  7 -  7) =      3.66057  eV     1   --> A_1  G_1 D_1   
     e(  8 -  8) =      4.57434  eV     1   --> A_1  G_1 D_1   

 **************************************************************************

 **************************************************************************

                    xk=(   0.00000,   0.00000,  -3.42948  )

     Band symmetry, C_4v (4mm)  point group:

     e(  1 -  1) =    -18.92401  eV     1   --> A_1  G_1 D_1   
     e(  2 -  2) =    -17.62059  eV     1   --> A_1  G_1 D_1   
     e(  3 -  4) =     -6.20853  eV     2   --> E    G_5 D_5   
     e(  5 -  6) =     -3.65759  eV     2   --> E    G_5 D_5   
     e(  7 -  7) =      3.57343  eV     1   --> A_1  G_1 D_1   
     e(  8 -  8) =      4.47430  eV     1   --> A_1  G_1 D_1   

 **************************************************************************

 **************************************************************************

                    xk=(   0.00000,   0.00000,  -3.39051  )

     Band symmetry, C_4v (4mm)  point group:

     e(  1 -  1) =    -18.97228  eV     1   --> A_1  G_1 D_1   
     e(  2 -  2) =    -17.56557  eV     1   --> A_1  G_1 D_1   
     e(  3 -  4) =     -6.29862  eV     2   --> E    G_5 D_5   
     e(  5 -  6) =     -3.54430  eV     2   --> E    G_5 D_5   
     e(  7 -  7) =      3.48675  eV     1   --> A_1  G_1 D_1   
     e(  8 -  8) =      4.37535  eV     1   --> A_1  G_1 D_1   

 **************************************************************************

 **************************************************************************

                    xk=(   0.00000,   0.00000,  -3.35154  )

     Band symmetry, C_4v (4mm)  point group:

     e(  1 -  1) =    -19.02031  eV     1   --> A_1  G_1 D_1   
     e(  2 -  2) =    -17.51027  eV     1   --> A_1  G_1 D_1   
     e(  3 -  4) =     -6.38802  eV     2   --> E    G_5 D_5   
     e(  5 -  6) =     -3.42987  eV     2   --> E    G_5 D_5   
     e(  7 -  7) =      3.40058  eV     1   --> A_1  G_1 D_1   
     e(  8 -  8) =      4.27752  eV     1   --> A_1  G_1 D_1   

 **************************************************************************

 **************************************************************************

                    xk=(   0.00000,   0.00000,  -3.31257  )

     Band symmetry, C_4v (4mm)  point group:

     e(  1 -  1) =    -19.06807  eV     1   --> A_1  G_1 D_1   
     e(  2 -  2) =    -17.45473  eV     1   --> A_1  G_1 D_1   
     e(  3 -  4) =     -6.47666  eV     2   --> E    G_5 D_5   
     e(  5 -  6) =     -3.31438  eV     2   --> E    G_5 D_5   
     e(  7 -  7) =      3.31497  eV     1   --> A_1  G_1 D_1   
     e(  8 -  8) =      4.18079  eV     1   --> A_1  G_1 D_1   

 **************************************************************************

 **************************************************************************

                    xk=(   0.00000,   0.00000,  -3.27360  )

     Band symmetry, C_4v (4mm)  point group:

     e(  1 -  1) =    -19.11553  eV     1   --> A_1  G_1 D_1   
     e(  2 -  2) =    -17.39898  eV     1   --> A_1  G_1 D_1   
     e(  3 -  4) =     -6.56449  eV     2   --> E    G_5 D_5   
     e(  5 -  6) =     -3.19786  eV     2   --> E    G_5 D_5   
     e(  7 -  7) =      3.22996  eV     1   --> A_1  G_1 D_1   
     e(  8 -  8) =      4.08517  eV     1   --> A_1  G_1 D_1   

 **************************************************************************

 **************************************************************************

                    xk=(   0.00000,   0.00000,  -3.23462  )

     Band symmetry, C_4v (4mm)  point group:

     e(  1 -  1) =    -19.16266  eV     1   --> A_1  G_1 D_1   
     e(  2 -  2) =    -17.34306  eV     1   --> A_1  G_1 D_1   
     e(  3 -  4) =     -6.65148  eV     2   --> E    G_5 D_5   
     e(  5 -  6) =     -3.08037  eV     2   --> E    G_5 D_5   
     e(  7 -  7) =      3.14558  eV     1   --> A_1  G_1 D_1   
     e(  8 -  8) =      3.99068  eV     1   --> A_1  G_1 D_1   

 **************************************************************************

 **************************************************************************

                    xk=(   0.00000,   0.00000,  -3.19565  )

     Band symmetry, C_4v (4mm)  point group:

     e(  1 -  1) =    -19.20945  eV     1   --> A_1  G_1 D_1   
     e(  2 -  2) =    -17.28697  eV     1   --> A_1  G_1 D_1   
     e(  3 -  4) =     -6.73761  eV     2   --> E    G_5 D_5   
     e(  5 -  6) =     -2.96193  eV     2   --> E    G_5 D_5   
     e(  7 -  7) =      3.06188  eV     1   --> A_1  G_1 D_1   
     e(  8 -  8) =      3.89730  eV     1   --> A_1  G_1 D_1   

 **************************************************************************

 **************************************************************************

                    xk=(   0.00000,   0.00000,  -3.15668  )

     Band symmetry, C_4v (4mm)  point group:

     e(  1 -  1) =    -19.25587  eV     1   --> A_1  G_1 D_1   
     e(  2 -  2) =    -17.23076  eV     1   --> A_1  G_1 D_1   
     e(  3 -  4) =     -6.82284  eV     2   --> E    G_5 D_5   
     e(  5 -  6) =     -2.84258  eV     2   --> E    G_5 D_5   
     e(  7 -  7) =      2.97886  eV     1   --> A_1  G_1 D_1   
     e(  8 -  8) =      3.80503  eV     1   --> A_1  G_1 D_1   

 **************************************************************************

 **************************************************************************

                    xk=(   0.00000,   0.00000,  -3.11771  )

     Band symmetry, C_4v (4mm)  point group:

     e(  1 -  1) =    -19.30193  eV     1   --> A_1  G_1 D_1   
     e(  2 -  2) =    -17.17445  eV     1   --> A_1  G_1 D_1   
     e(  3 -  4) =     -6.90717  eV     2   --> E    G_5 D_5   
     e(  5 -  6) =     -2.72234  eV     2   --> E    G_5 D_5   
     e(  7 -  7) =      2.89657  eV     1   --> A_1  G_1 D_1   
     e(  8 -  8) =      3.71389  eV     1   --> A_1  G_1 D_1   

 **************************************************************************

 **************************************************************************

                    xk=(   0.00000,   0.00000,  -3.07874  )

     Band symmetry, C_4v (4mm)  point group:

     e(  1 -  1) =    -19.34759  eV     1   --> A_1  G_1 D_1   
     e(  2 -  2) =    -17.11805  eV     1   --> A_1  G_1 D_1   
     e(  3 -  4) =     -6.99057  eV     2   --> E    G_5 D_5   
     e(  5 -  6) =     -2.60124  eV     2   --> E    G_5 D_5   
     e(  7 -  7) =      2.81503  eV     1   --> A_1  G_1 D_1   
     e(  8 -  8) =      3.62388  eV     1   --> A_1  G_1 D_1   

 **************************************************************************

 **************************************************************************

                    xk=(   0.00000,   0.00000,  -3.03977  )

     Band symmetry, C_4v (4mm)  point group:

     e(  1 -  1) =    -19.39286  eV     1   --> A_1  G_1 D_1   
     e(  2 -  2) =    -17.06157  eV     1   --> A_1  G_1 D_1   
     e(  3 -  4) =     -7.07304  eV     2   --> E    G_5 D_5   
     e(  5 -  6) =     -2.47930  eV     2   --> E    G_5 D_5   
     e(  7 -  7) =      2.73426  eV     1   --> A_1  G_1 D_1   
     e(  8 -  8) =      3.53498  eV     1   --> A_1  G_1 D_1   

 **************************************************************************

 **************************************************************************

                    xk=(   0.00000,   0.00000,  -3.00080  )

     Band symmetry, C_4v (4mm)  point group:

     e(  1 -  1) =    -19.43771  eV     1   --> A_1  G_1 D_1   
     e(  2 -  2) =    -17.00504  eV     1   --> A_1  G_1 D_1   
     e(  3 -  4) =     -7.15455  eV     2   --> E    G_5 D_5   
     e(  5 -  6) =     -2.35654  eV     2   --> E    G_5 D_5   
     e(  7 -  7) =      2.65427  eV     1   --> A_1  G_1 D_1   
     e(  8 -  8) =      3.44721  eV     1   --> A_1  G_1 D_1   

 **************************************************************************

 **************************************************************************

                    xk=(   0.00000,   0.00000,  -2.96183  )

     Band symmetry, C_4v (4mm)  point group:

     e(  1 -  1) =    -19.48215  eV     1   --> A_1  G_1 D_1   
     e(  2 -  2) =    -16.94848  eV     1   --> A_1  G_1 D_1   
     e(  3 -  4) =     -7.23511  eV     2   --> E    G_5 D_5   
     e(  5 -  6) =     -2.23297  eV     2   --> E    G_5 D_5   
     e(  7 -  7) =      2.57510  eV     1   --> A_1  G_1 D_1   
     e(  8 -  8) =      3.36056  eV     1   --> A_1  G_1 D_1   

 **************************************************************************

 **************************************************************************

                    xk=(   0.00000,   0.00000,  -2.92285  )

     Band symmetry, C_4v (4mm)  point group:

     e(  1 -  1) =    -19.52615  eV     1   --> A_1  G_1 D_1   
     e(  2 -  2) =    -16.89191  eV     1   --> A_1  G_1 D_1   
     e(  3 -  4) =     -7.31469  eV     2   --> E    G_5 D_5   
     e(  5 -  6) =     -2.10863  eV     2   --> E    G_5 D_5   
     e(  7 -  7) =      2.49676  eV     1   --> A_1  G_1 D_1   
     e(  8 -  8) =      3.27504  eV     1   --> A_1  G_1 D_1   

 **************************************************************************

 **************************************************************************

                    xk=(   0.00000,   0.00000,  -2.88388  )

     Band symmetry, C_4v (4mm)  point group:

     e(  1 -  1) =    -19.56972  eV     1   --> A_1  G_1 D_1   
     e(  2 -  2) =    -16.83534  eV     1   --> A_1  G_1 D_1   
     e(  3 -  4) =     -7.39330  eV     2   --> E    G_5 D_5   
     e(  5 -  6) =     -1.98352  eV     2   --> E    G_5 D_5   
     e(  7 -  7) =      2.41926  eV     1   --> A_1  G_1 D_1   
     e(  8 -  8) =      3.19064  eV     1   --> A_1  G_1 D_1   

 **************************************************************************

 **************************************************************************

                    xk=(   0.00000,   0.00000,  -2.84491  )

     Band symmetry, C_4v (4mm)  point group:

     e(  1 -  1) =    -19.61284  eV     1   --> A_1  G_1 D_1   
     e(  2 -  2) =    -16.77878  eV     1   --> A_1  G_1 D_1   
     e(  3 -  4) =     -7.47092  eV     2   --> E    G_5 D_5   
     e(  5 -  6) =     -1.85766  eV     2   --> E    G_5 D_5   
     e(  7 -  7) =      2.34262  eV     1   --> A_1  G_1 D_1   
     e(  8 -  8) =      3.10737  eV     1   --> A_1  G_1 D_1   

 **************************************************************************

 **************************************************************************

                    xk=(   0.00000,   0.00000,  -2.80594  )

     Band symmetry, C_4v (4mm)  point group:

     e(  1 -  1) =    -19.65551  eV     1   --> A_1  G_1 D_1   
     e(  2 -  2) =    -16.72227  eV     1   --> A_1  G_1 D_1   
     e(  3 -  4) =     -7.54756  eV     2   --> E    G_5 D_5   
     e(  5 -  6) =     -1.73108  eV     2   --> E    G_5 D_5   
     e(  7 -  7) =      2.26685  eV     1   --> A_1  G_1 D_1   
     e(  8 -  8) =      3.02522  eV     1   --> A_1  G_1 D_1   

 **************************************************************************

 **************************************************************************

                    xk=(   0.00000,   0.00000,  -2.76697  )

     Band symmetry, C_4v (4mm)  point group:

     e(  1 -  1) =    -19.69772  eV     1   --> A_1  G_1 D_1   
     e(  2 -  2) =    -16.66581  eV     1   --> A_1  G_1 D_1   
     e(  3 -  4) =     -7.62320  eV     2   --> E    G_5 D_5   
     e(  5 -  6) =     -1.60379  eV     2   --> E    G_5 D_5   
     e(  7 -  7) =      2.19197  eV     1   --> A_1  G_1 D_1   
     e(  8 -  8) =      2.94421  eV     1   --> A_1  G_1 D_1   

 **************************************************************************

 **************************************************************************

                    xk=(   0.00000,   0.00000,  -2.72800  )

     Band symmetry, C_4v (4mm)  point group:

     e(  1 -  1) =    -19.73946  eV     1   --> A_1  G_1 D_1   
     e(  2 -  2) =    -16.60942  eV     1   --> A_1  G_1 D_1   
     e(  3 -  4) =     -7.69785  eV     2   --> E    G_5 D_5   
     e(  5 -  6) =     -1.47581  eV     2   --> E    G_5 D_5   
     e(  7 -  7) =      2.11799  eV     1   --> A_1  G_1 D_1   
     e(  8 -  8) =      2.86432  eV     1   --> A_1  G_1 D_1   

 **************************************************************************

 **************************************************************************

                    xk=(   0.00000,   0.00000,  -2.68903  )

     Band symmetry, C_4v (4mm)  point group:

     e(  1 -  1) =    -19.78073  eV     1   --> A_1  G_1 D_1   
     e(  2 -  2) =    -16.55312  eV     1   --> A_1  G_1 D_1   
     e(  3 -  4) =     -7.77149  eV     2   --> E    G_5 D_5   
     e(  5 -  6) =     -1.34716  eV     2   --> E    G_5 D_5   
     e(  7 -  7) =      2.04492  eV     1   --> A_1  G_1 D_1   
     e(  8 -  8) =      2.78556  eV     1   --> A_1  G_1 D_1   

 **************************************************************************

 **************************************************************************

                    xk=(   0.00000,   0.00000,  -2.65005  )

     Band symmetry, C_4v (4mm)  point group:

     e(  1 -  1) =    -19.82152  eV     1   --> A_1  G_1 D_1   
     e(  2 -  2) =    -16.49693  eV     1   --> A_1  G_1 D_1   
     e(  3 -  4) =     -7.84412  eV     2   --> E    G_5 D_5   
     e(  5 -  6) =     -1.21786  eV     2   --> E    G_5 D_5   
     e(  7 -  7) =      1.97277  eV     1   --> A_1  G_1 D_1   
     e(  8 -  8) =      2.70792  eV     1   --> A_1  G_1 D_1   

 **************************************************************************

 **************************************************************************

                    xk=(   0.00000,   0.00000,  -2.61108  )

     Band symmetry, C_4v (4mm)  point group:

     e(  1 -  1) =    -19.86182  eV     1   --> A_1  G_1 D_1   
     e(  2 -  2) =    -16.44085  eV     1   --> A_1  G_1 D_1   
     e(  3 -  4) =     -7.91574  eV     2   --> E    G_5 D_5   
     e(  5 -  6) =     -1.08793  eV     2   --> E    G_5 D_5   
     e(  7 -  7) =      1.90155  eV     1   --> A_1  G_1 D_1   
     e(  8 -  8) =      2.63142  eV     1   --> A_1  G_1 D_1   

 **************************************************************************

 **************************************************************************

                    xk=(   0.00000,   0.00000,  -2.57211  )

     Band symmetry, C_4v (4mm)  point group:

     e(  1 -  1) =    -19.90163  eV     1   --> A_1  G_1 D_1   
     e(  2 -  2) =    -16.38493  eV     1   --> A_1  G_1 D_1   
     e(  3 -  4) =     -7.98634  eV     2   --> E    G_5 D_5   
     e(  5 -  6) =     -0.95738  eV     2   --> E    G_5 D_5   
     e(  7 -  7) =      1.83127  eV     1   --> A_1  G_1 D_1   
     e(  8 -  8) =      2.55605  eV     1   --> A_1  G_1 D_1   

 **************************************************************************

 **************************************************************************

                    xk=(   0.00000,   0.00000,  -2.53314  )

     Band symmetry, C_4v (4mm)  point group:

     e(  1 -  1) =    -19.94094  eV     1   --> A_1  G_1 D_1   
     e(  2 -  2) =    -16.32916  eV     1   --> A_1  G_1 D_1   
     e(  3 -  4) =     -8.05592  eV     2   --> E    G_5 D_5   
     e(  5 -  6) =     -0.82625  eV     2   --> E    G_5 D_5   
     e(  7 -  7) =      1.76195  eV     1   --> A_1  G_1 D_1   
     e(  8 -  8) =      2.48180  eV     1   --> A_1  G_1 D_1   

 **************************************************************************

 **************************************************************************

                    xk=(   0.00000,   0.00000,  -2.49417  )

     Band symmetry, C_4v (4mm)  point group:

     e(  1 -  1) =    -19.97976  eV     1   --> A_1  G_1 D_1   
     e(  2 -  2) =    -16.27357  eV     1   --> A_1  G_1 D_1   
     e(  3 -  4) =     -8.12449  eV     2   --> E    G_5 D_5   
     e(  5 -  6) =     -0.69455  eV     2   --> E    G_5 D_5   
     e(  7 -  7) =      1.69357  eV     1   --> A_1  G_1 D_1   
     e(  8 -  8) =      2.40869  eV     1   --> A_1  G_1 D_1   

 **************************************************************************

 **************************************************************************

                    xk=(   0.00000,   0.00000,  -2.45520  )

     Band symmetry, C_4v (4mm)  point group:

     e(  1 -  1) =    -20.01806  eV     1   --> A_1  G_1 D_1   
     e(  2 -  2) =    -16.21818  eV     1   --> A_1  G_1 D_1   
     e(  3 -  4) =     -8.19202  eV     2   --> E    G_5 D_5   
     e(  5 -  6) =     -0.56230  eV     2   --> E    G_5 D_5   
     e(  7 -  7) =      1.62617  eV     1   --> A_1  G_1 D_1   
     e(  8 -  8) =      2.33670  eV     1   --> A_1  G_1 D_1   

 **************************************************************************

 **************************************************************************

                    xk=(   0.00000,   0.00000,  -2.41623  )

     Band symmetry, C_4v (4mm)  point group:

     e(  1 -  1) =    -20.05585  eV     1   --> A_1  G_1 D_1   
     e(  2 -  2) =    -16.16300  eV     1   --> A_1  G_1 D_1   
     e(  3 -  4) =     -8.25854  eV     2   --> E    G_5 D_5   
     e(  5 -  6) =     -0.42954  eV     2   --> E    G_5 D_5   
     e(  7 -  7) =      1.55973  eV     1   --> A_1  G_1 D_1   
     e(  8 -  8) =      2.26584  eV     1   --> A_1  G_1 D_1   

 **************************************************************************

 **************************************************************************

                    xk=(   0.00000,   0.00000,  -2.37725  )

     Band symmetry, C_4v (4mm)  point group:

     e(  1 -  1) =    -20.09312  eV     1   --> A_1  G_1 D_1   
     e(  2 -  2) =    -16.10806  eV     1   --> A_1  G_1 D_1   
     e(  3 -  4) =     -8.32402  eV     2   --> E    G_5 D_5   
     e(  5 -  6) =     -0.29629  eV     2   --> E    G_5 D_5   
     e(  7 -  7) =      1.49428  eV     1   --> A_1  G_1 D_1   
     e(  8 -  8) =      2.19612  eV     1   --> A_1  G_1 D_1   

 **************************************************************************

 **************************************************************************

                    xk=(   0.00000,   0.00000,  -2.33828  )

     Band symmetry, C_4v (4mm)  point group:

     e(  1 -  1) =    -20.12987  eV     1   --> A_1  G_1 D_1   
     e(  2 -  2) =    -16.05337  eV     1   --> A_1  G_1 D_1   
     e(  3 -  4) =     -8.38847  eV     2   --> E    G_5 D_5   
     e(  5 -  6) =     -0.16256  eV     2   --> E    G_5 D_5   
     e(  7 -  7) =      1.42981  eV     1   --> A_1  G_1 D_1   
     e(  8 -  8) =      2.12753  eV     1   --> A_1  G_1 D_1   

 **************************************************************************

 **************************************************************************

                    xk=(   0.00000,   0.00000,  -2.29931  )

     Band symmetry, C_4v (4mm)  point group:

     e(  1 -  1) =    -20.16610  eV     1   --> A_1  G_1 D_1   
     e(  2 -  2) =    -15.99896  eV     1   --> A_1  G_1 D_1   
     e(  3 -  4) =     -8.45188  eV     2   --> E    G_5 D_5   
     e(  5 -  6) =     -0.02840  eV     2   --> E    G_5 D_5   
     e(  7 -  7) =      1.36633  eV     1   --> A_1  G_1 D_1   
     e(  8 -  8) =      2.06006  eV     1   --> A_1  G_1 D_1   

 **************************************************************************

 **************************************************************************

                    xk=(   0.00000,   0.00000,  -2.26034  )

     Band symmetry, C_4v (4mm)  point group:

     e(  1 -  1) =    -20.20180  eV     1   --> A_1  G_1 D_1   
     e(  2 -  2) =    -15.94484  eV     1   --> A_1  G_1 D_1   
     e(  3 -  4) =     -8.51426  eV     2   --> E    G_5 D_5   
     e(  5 -  6) =      0.10617  eV     2   --> E    G_5 D_5   
     e(  7 -  7) =      1.30384  eV     1   --> A_1  G_1 D_1   
     e(  8 -  8) =      1.99373  eV     1   --> A_1  G_1 D_1   

 **************************************************************************

 **************************************************************************

                    xk=(   0.00000,   0.00000,  -2.22137  )

     Band symmetry, C_4v (4mm)  point group:

     e(  1 -  1) =    -20.23696  eV     1   --> A_1  G_1 D_1   
     e(  2 -  2) =    -15.89104  eV     1   --> A_1  G_1 D_1   
     e(  3 -  4) =     -8.57560  eV     2   --> E    G_5 D_5   
     e(  5 -  6) =      0.24111  eV     2   --> E    G_5 D_5   
     e(  7 -  7) =      1.24236  eV     1   --> A_1  G_1 D_1   
     e(  8 -  8) =      1.92853  eV     1   --> A_1  G_1 D_1   

 **************************************************************************

 **************************************************************************

                    xk=(   0.00000,   0.00000,  -2.18240  )

     Band symmetry, C_4v (4mm)  point group:

     e(  1 -  1) =    -20.27158  eV     1   --> A_1  G_1 D_1   
     e(  2 -  2) =    -15.83756  eV     1   --> A_1  G_1 D_1   
     e(  3 -  4) =     -8.63590  eV     2   --> E    G_5 D_5   
     e(  5 -  6) =      0.37639  eV     2   --> E    G_5 D_5   
     e(  7 -  7) =      1.18189  eV     1   --> A_1  G_1 D_1   
     e(  8 -  8) =      1.86446  eV     1   --> A_1  G_1 D_1   

 **************************************************************************

 **************************************************************************

                    xk=(   0.00000,   0.00000,  -2.14343  )

     Band symmetry, C_4v (4mm)  point group:

     e(  1 -  1) =    -20.30565  eV     1   --> A_1  G_1 D_1   
     e(  2 -  2) =    -15.78445  eV     1   --> A_1  G_1 D_1   
     e(  3 -  4) =     -8.69516  eV     2   --> E    G_5 D_5   
     e(  5 -  6) =      0.51198  eV     2   --> E    G_5 D_5   
     e(  7 -  7) =      1.12243  eV     1   --> A_1  G_1 D_1   
     e(  8 -  8) =      1.80153  eV     1   --> A_1  G_1 D_1   

 **************************************************************************

 **************************************************************************

                    xk=(   0.00000,   0.00000,  -2.10445  )

     Band symmetry, C_4v (4mm)  point group:

     e(  1 -  1) =    -20.33918  eV     1   --> A_1  G_1 D_1   
     e(  2 -  2) =    -15.73170  eV     1   --> A_1  G_1 D_1   
     e(  3 -  4) =     -8.75337  eV     2   --> E    G_5 D_5   
     e(  5 -  6) =      0.64782  eV     2   --> E    G_5 D_5   
     e(  7 -  7) =      1.06399  eV     1   --> A_1  G_1 D_1   
     e(  8 -  8) =      1.73972  eV     1   --> A_1  G_1 D_1   

 **************************************************************************

 **************************************************************************

                    xk=(   0.00000,   0.00000,  -2.06548  )

     Band symmetry, C_4v (4mm)  point group:

     e(  1 -  1) =    -20.37215  eV     1   --> A_1  G_1 D_1   
     e(  2 -  2) =    -15.67936  eV     1   --> A_1  G_1 D_1   
     e(  3 -  4) =     -8.81054  eV     2   --> E    G_5 D_5   
     e(  5 -  6) =      0.78388  eV     2   --> E    G_5 D_5   
     e(  7 -  7) =      1.00657  eV     1   --> A_1  G_1 D_1   
     e(  8 -  8) =      1.67905  eV     1   --> A_1  G_1 D_1   

 **************************************************************************

 **************************************************************************

                    xk=(   0.00000,   0.00000,  -2.02651  )

     Band symmetry, C_4v (4mm)  point group:

     e(  1 -  1) =    -20.40457  eV     1   --> A_1  G_1 D_1   
     e(  2 -  2) =    -15.62743  eV     1   --> A_1  G_1 D_1   
     e(  3 -  4) =     -8.86666  eV     2   --> E    G_5 D_5   
     e(  5 -  6) =      0.92007  eV     2   --> E    G_5 D_5   
     e(  7 -  7) =      0.95017  eV     1   --> A_1  G_1 D_1   
     e(  8 -  8) =      1.61951  eV     1   --> A_1  G_1 D_1   

 **************************************************************************

 **************************************************************************

                    xk=(   0.00000,   0.00000,  -1.98754  )

     Band symmetry, C_4v (4mm)  point group:

     e(  1 -  1) =    -20.43643  eV     1   --> A_1  G_1 D_1   
     e(  2 -  2) =    -15.57594  eV     1   --> A_1  G_1 D_1   
     e(  3 -  4) =     -8.92174  eV     2   --> E    G_5 D_5   
     e(  5 -  5) =      0.89480  eV     1   --> A_1  G_1 D_1   
     e(  6 -  7) =      1.05630  eV     2   --> E    G_5 D_5   
     e(  8 -  8) =      1.56110  eV     1   --> A_1  G_1 D_1   

 **************************************************************************

 **************************************************************************

                    xk=(   0.00000,   0.00000,  -1.94857  )

     Band symmetry, C_4v (4mm)  point group:

     e(  1 -  1) =    -20.46773  eV     1   --> A_1  G_1 D_1   
     e(  2 -  2) =    -15.52490  eV     1   --> A_1  G_1 D_1   
     e(  3 -  4) =     -8.97576  eV     2   --> E    G_5 D_5   
     e(  5 -  5) =      0.84046  eV     1   --> A_1  G_1 D_1   
     e(  6 -  7) =      1.19235  eV     2   --> E    G_5 D_5   
     e(  8 -  8) =      1.50383  eV     1   --> A_1  G_1 D_1   

 **************************************************************************

 **************************************************************************

                    xk=(   0.00000,   0.00000,  -1.90960  )

     Band symmetry, C_4v (4mm)  point group:

     e(  1 -  1) =    -20.49846  eV     1   --> A_1  G_1 D_1   
     e(  2 -  2) =    -15.47436  eV     1   --> A_1  G_1 D_1   
     e(  3 -  4) =     -9.02873  eV     2   --> E    G_5 D_5   
     e(  5 -  5) =      0.78716  eV     1   --> A_1  G_1 D_1   
     e(  6 -  7) =      1.32749  eV     2   --> E    G_5 D_5   
     e(  8 -  8) =      1.44768  eV     1   --> A_1  G_1 D_1   

 **************************************************************************

 **************************************************************************

                    xk=(   0.00000,   0.00000,  -1.87063  )

     Band symmetry, C_4v (4mm)  point group:

     e(  1 -  1) =    -20.52862  eV     1   --> A_1  G_1 D_1   
     e(  2 -  2) =    -15.42431  eV     1   --> A_1  G_1 D_1   
     e(  3 -  4) =     -9.08065  eV     2   --> E    G_5 D_5   
     e(  5 -  5) =      0.73490  eV     1   --> A_1  G_1 D_1   
     e(  6 -  6) =      1.39267  eV     1   --> A_1  G_1 D_1   
     e(  7 -  8) =      1.45195  eV     2   --> E    G_5 D_5   

 **************************************************************************

 **************************************************************************

                    xk=(   0.00000,   0.00000,  -1.83165  )

     Band symmetry, C_4v (4mm)  point group:

     e(  1 -  1) =    -20.55821  eV     1   --> A_1  G_1 D_1   
     e(  2 -  2) =    -15.37479  eV     1   --> A_1  G_1 D_1   
     e(  3 -  4) =     -9.13151  eV     2   --> E    G_5 D_5   
     e(  5 -  5) =      0.68368  eV     1   --> A_1  G_1 D_1   
     e(  6 -  6) =      1.33880  eV     1   --> A_1  G_1 D_1   
     e(  7 -  8) =      1.44148  eV     2   --> E    G_5 D_5   

 **************************************************************************

 **************************************************************************

                    xk=(   0.00000,   0.00000,  -1.79268  )

     Band symmetry, C_4v (4mm)  point group:

     e(  1 -  1) =    -20.58722  eV     1   --> A_1  G_1 D_1   
     e(  2 -  2) =    -15.32583  eV     1   --> A_1  G_1 D_1   
     e(  3 -  4) =     -9.18132  eV     2   --> E    G_5 D_5   
     e(  5 -  5) =      0.63350  eV     1   --> A_1  G_1 D_1   
     e(  6 -  6) =      1.28605  eV     1   --> A_1  G_1 D_1   
     e(  7 -  8) =      1.39088  eV     2   --> E    G_5 D_5   

 **************************************************************************

 **************************************************************************

                    xk=(   0.00000,   0.00000,  -1.75371  )

     Band symmetry, C_4v (4mm)  point group:

     e(  1 -  1) =    -20.61566  eV     1   --> A_1  G_1 D_1   
     e(  2 -  2) =    -15.27743  eV     1   --> A_1  G_1 D_1   
     e(  3 -  4) =     -9.23008  eV     2   --> E    G_5 D_5   
     e(  5 -  5) =      0.58437  eV     1   --> A_1  G_1 D_1   
     e(  6 -  6) =      1.23444  eV     1   --> A_1  G_1 D_1   
     e(  7 -  8) =      1.33974  eV     2   --> E    G_5 D_5   

 **************************************************************************

 **************************************************************************

                    xk=(   0.00000,   0.00000,  -1.71474  )

     Band symmetry, C_4v (4mm)  point group:

     e(  1 -  1) =    -20.64351  eV     1   --> A_1  G_1 D_1   
     e(  2 -  2) =    -15.22963  eV     1   --> A_1  G_1 D_1   
     e(  3 -  4) =     -9.27778  eV     2   --> E    G_5 D_5   
     e(  5 -  5) =      0.53629  eV     1   --> A_1  G_1 D_1   
     e(  6 -  6) =      1.18396  eV     1   --> A_1  G_1 D_1   
     e(  7 -  8) =      1.28935  eV     2   --> E    G_5 D_5   

 **************************************************************************

 **************************************************************************

                    xk=(   0.00000,   0.00000,  -1.67577  )

     Band symmetry, C_4v (4mm)  point group:

     e(  1 -  1) =    -20.67077  eV     1   --> A_1  G_1 D_1   
     e(  2 -  2) =    -15.18244  eV     1   --> A_1  G_1 D_1   
     e(  3 -  4) =     -9.32441  eV     2   --> E    G_5 D_5   
     e(  5 -  5) =      0.48927  eV     1   --> A_1  G_1 D_1   
     e(  6 -  6) =      1.13462  eV     1   --> A_1  G_1 D_1   
     e(  7 -  8) =      1.23995  eV     2   --> E    G_5 D_5   

 **************************************************************************

 **************************************************************************

                    xk=(   0.00000,   0.00000,  -1.63680  )

     Band symmetry, C_4v (4mm)  point group:

     e(  1 -  1) =    -20.69745  eV     1   --> A_1  G_1 D_1   
     e(  2 -  2) =    -15.13590  eV     1   --> A_1  G_1 D_1   
     e(  3 -  4) =     -9.36999  eV     2   --> E    G_5 D_5   
     e(  5 -  5) =      0.44330  eV     1   --> A_1  G_1 D_1   
     e(  6 -  6) =      1.08641  eV     1   --> A_1  G_1 D_1   
     e(  7 -  8) =      1.19162  eV     2   --> E    G_5 D_5   

 **************************************************************************

 **************************************************************************

                    xk=(   0.00000,   0.00000,  -1.59783  )

     Band symmetry, C_4v (4mm)  point group:

     e(  1 -  1) =    -20.72354  eV     1   --> A_1  G_1 D_1   
     e(  2 -  2) =    -15.09003  eV     1   --> A_1  G_1 D_1   
     e(  3 -  4) =     -9.41451  eV     2   --> E    G_5 D_5   
     e(  5 -  5) =      0.39839  eV     1   --> A_1  G_1 D_1   
     e(  6 -  6) =      1.03933  eV     1   --> A_1  G_1 D_1   
     e(  7 -  8) =      1.14440  eV     2   --> E    G_5 D_5   

 **************************************************************************

 **************************************************************************

                    xk=(   0.00000,   0.00000,  -1.55886  )

     Band symmetry, C_4v (4mm)  point group:

     e(  1 -  1) =    -20.74903  eV     1   --> A_1  G_1 D_1   
     e(  2 -  2) =    -15.04484  eV     1   --> A_1  G_1 D_1   
     e(  3 -  4) =     -9.45797  eV     2   --> E    G_5 D_5   
     e(  5 -  5) =      0.35453  eV     1   --> A_1  G_1 D_1   
     e(  6 -  6) =      0.99339  eV     1   --> A_1  G_1 D_1   
     e(  7 -  8) =      1.09828  eV     2   --> E    G_5 D_5   

 **************************************************************************

 **************************************************************************

                    xk=(   0.00000,   0.00000,  -1.51988  )

     Band symmetry, C_4v (4mm)  point group:

     e(  1 -  1) =    -20.77393  eV     1   --> A_1  G_1 D_1   
     e(  2 -  2) =    -15.00036  eV     1   --> A_1  G_1 D_1   
     e(  3 -  4) =     -9.50036  eV     2   --> E    G_5 D_5   
     e(  5 -  5) =      0.31174  eV     1   --> A_1  G_1 D_1   
     e(  6 -  6) =      0.94858  eV     1   --> A_1  G_1 D_1   
     e(  7 -  8) =      1.05330  eV     2   --> E    G_5 D_5   

 **************************************************************************

 **************************************************************************

                    xk=(   0.00000,   0.00000,  -1.48091  )

     Band symmetry, C_4v (4mm)  point group:

     e(  1 -  1) =    -20.79823  eV     1   --> A_1  G_1 D_1   
     e(  2 -  2) =    -14.95662  eV     1   --> A_1  G_1 D_1   
     e(  3 -  4) =     -9.54169  eV     2   --> E    G_5 D_5   
     e(  5 -  5) =      0.27001  eV     1   --> A_1  G_1 D_1   
     e(  6 -  6) =      0.90490  eV     1   --> A_1  G_1 D_1   
     e(  7 -  8) =      1.00944  eV     2   --> E    G_5 D_5   

 **************************************************************************

 **************************************************************************

                    xk=(   0.00000,   0.00000,  -1.44194  )

     Band symmetry, C_4v (4mm)  point group:

     e(  1 -  1) =    -20.82193  eV     1   --> A_1  G_1 D_1   
     e(  2 -  2) =    -14.91364  eV     1   --> A_1  G_1 D_1   
     e(  3 -  4) =     -9.58196  eV     2   --> E    G_5 D_5   
     e(  5 -  5) =      0.22935  eV     1   --> A_1  G_1 D_1   
     e(  6 -  6) =      0.86236  eV     1   --> A_1  G_1 D_1   
     e(  7 -  8) =      0.96671  eV     2   --> E    G_5 D_5   

 **************************************************************************

 **************************************************************************

                    xk=(   0.00000,   0.00000,  -1.40297  )

     Band symmetry, C_4v (4mm)  point group:

     e(  1 -  1) =    -20.84502  eV     1   --> A_1  G_1 D_1   
     e(  2 -  2) =    -14.87145  eV     1   --> A_1  G_1 D_1   
     e(  3 -  4) =     -9.62116  eV     2   --> E    G_5 D_5   
     e(  5 -  5) =      0.18975  eV     1   --> A_1  G_1 D_1   
     e(  6 -  6) =      0.82095  eV     1   --> A_1  G_1 D_1   
     e(  7 -  8) =      0.92511  eV     2   --> E    G_5 D_5   

 **************************************************************************

 **************************************************************************

                    xk=(   0.00000,   0.00000,  -1.36400  )

     Band symmetry, C_4v (4mm)  point group:

     e(  1 -  1) =    -20.86751  eV     1   --> A_1  G_1 D_1   
     e(  2 -  2) =    -14.83006  eV     1   --> A_1  G_1 D_1   
     e(  3 -  4) =     -9.65930  eV     2   --> E    G_5 D_5   
     e(  5 -  5) =      0.15123  eV     1   --> A_1  G_1 D_1   
     e(  6 -  6) =      0.78067  eV     1   --> A_1  G_1 D_1   
     e(  7 -  8) =      0.88466  eV     2   --> E    G_5 D_5   

 **************************************************************************

 **************************************************************************

                    xk=(   0.00000,   0.00000,  -1.32503  )

     Band symmetry, C_4v (4mm)  point group:

     e(  1 -  1) =    -20.88939  eV     1   --> A_1  G_1 D_1   
     e(  2 -  2) =    -14.78950  eV     1   --> A_1  G_1 D_1   
     e(  3 -  4) =     -9.69637  eV     2   --> E    G_5 D_5   
     e(  5 -  5) =      0.11377  eV     1   --> A_1  G_1 D_1   
     e(  6 -  6) =      0.74153  eV     1   --> A_1  G_1 D_1   
     e(  7 -  8) =      0.84533  eV     2   --> E    G_5 D_5   

 **************************************************************************

 **************************************************************************

                    xk=(   0.00000,   0.00000,  -1.28606  )

     Band symmetry, C_4v (4mm)  point group:

     e(  1 -  1) =    -20.91066  eV     1   --> A_1  G_1 D_1   
     e(  2 -  2) =    -14.74979  eV     1   --> A_1  G_1 D_1   
     e(  3 -  4) =     -9.73237  eV     2   --> E    G_5 D_5   
     e(  5 -  5) =      0.07738  eV     1   --> A_1  G_1 D_1   
     e(  6 -  6) =      0.70352  eV     1   --> A_1  G_1 D_1   
     e(  7 -  8) =      0.80715  eV     2   --> E    G_5 D_5   

 **************************************************************************

 **************************************************************************

                    xk=(   0.00000,   0.00000,  -1.24708  )

     Band symmetry, C_4v (4mm)  point group:

     e(  1 -  1) =    -20.93131  eV     1   --> A_1  G_1 D_1   
     e(  2 -  2) =    -14.71097  eV     1   --> A_1  G_1 D_1   
     e(  3 -  4) =     -9.76730  eV     2   --> E    G_5 D_5   
     e(  5 -  5) =      0.04207  eV     1   --> A_1  G_1 D_1   
     e(  6 -  6) =      0.66665  eV     1   --> A_1  G_1 D_1   
     e(  7 -  8) =      0.77010  eV     2   --> E    G_5 D_5   

 **************************************************************************

 **************************************************************************

                    xk=(   0.00000,   0.00000,  -1.20811  )

     Band symmetry, C_4v (4mm)  point group:

     e(  1 -  1) =    -20.95135  eV     1   --> A_1  G_1 D_1   
     e(  2 -  2) =    -14.67304  eV     1   --> A_1  G_1 D_1   
     e(  3 -  4) =     -9.80117  eV     2   --> E    G_5 D_5   
     e(  5 -  5) =      0.00783  eV     1   --> A_1  G_1 D_1   
     e(  6 -  6) =      0.63091  eV     1   --> A_1  G_1 D_1   
     e(  7 -  8) =      0.73419  eV     2   --> E    G_5 D_5   

 **************************************************************************

 **************************************************************************

                    xk=(   0.00000,   0.00000,  -1.16914  )

     Band symmetry, C_4v (4mm)  point group:

     e(  1 -  1) =    -20.97078  eV     1   --> A_1  G_1 D_1   
     e(  2 -  2) =    -14.63605  eV     1   --> A_1  G_1 D_1   
     e(  3 -  4) =     -9.83397  eV     2   --> E    G_5 D_5   
     e(  5 -  5) =     -0.02533  eV     1   --> A_1  G_1 D_1   
     e(  6 -  6) =      0.59631  eV     1   --> A_1  G_1 D_1   
     e(  7 -  8) =      0.69942  eV     2   --> E    G_5 D_5   

 **************************************************************************

 **************************************************************************

                    xk=(   0.00000,   0.00000,  -1.13017  )

     Band symmetry, C_4v (4mm)  point group:

     e(  1 -  1) =    -20.98958  eV     1   --> A_1  G_1 D_1   
     e(  2 -  2) =    -14.59999  eV     1   --> A_1  G_1 D_1   
     e(  3 -  4) =     -9.86569  eV     2   --> E    G_5 D_5   
     e(  5 -  5) =     -0.05742  eV     1   --> A_1  G_1 D_1   
     e(  6 -  6) =      0.56284  eV     1   --> A_1  G_1 D_1   
     e(  7 -  8) =      0.66579  eV     2   --> E    G_5 D_5   

 **************************************************************************

 **************************************************************************

                    xk=(   0.00000,   0.00000,  -1.09120  )

     Band symmetry, C_4v (4mm)  point group:

     e(  1 -  1) =    -21.00776  eV     1   --> A_1  G_1 D_1   
     e(  2 -  2) =    -14.56491  eV     1   --> A_1  G_1 D_1   
     e(  3 -  4) =     -9.89635  eV     2   --> E    G_5 D_5   
     e(  5 -  5) =     -0.08843  eV     1   --> A_1  G_1 D_1   
     e(  6 -  6) =      0.53050  eV     1   --> A_1  G_1 D_1   
     e(  7 -  8) =      0.63330  eV     2   --> E    G_5 D_5   

 **************************************************************************

 **************************************************************************

                    xk=(   0.00000,   0.00000,  -1.05223  )

     Band symmetry, C_4v (4mm)  point group:

     e(  1 -  1) =    -21.02533  eV     1   --> A_1  G_1 D_1   
     e(  2 -  2) =    -14.53083  eV     1   --> A_1  G_1 D_1   
     e(  3 -  4) =     -9.92593  eV     2   --> E    G_5 D_5   
     e(  5 -  5) =     -0.11835  eV     1   --> A_1  G_1 D_1   
     e(  6 -  6) =      0.49930  eV     1   --> A_1  G_1 D_1   
     e(  7 -  8) =      0.60194  eV     2   --> E    G_5 D_5   

 **************************************************************************

 **************************************************************************

                    xk=(   0.00000,   0.00000,  -1.01326  )

     Band symmetry, C_4v (4mm)  point group:

     e(  1 -  1) =    -21.04226  eV     1   --> A_1  G_1 D_1   
     e(  2 -  2) =    -14.49776  eV     1   --> A_1  G_1 D_1   
     e(  3 -  4) =     -9.95445  eV     2   --> E    G_5 D_5   
     e(  5 -  5) =     -0.14720  eV     1   --> A_1  G_1 D_1   
     e(  6 -  6) =      0.46923  eV     1   --> A_1  G_1 D_1   
     e(  7 -  8) =      0.57173  eV     2   --> E    G_5 D_5   

 **************************************************************************

 **************************************************************************

                    xk=(   0.00000,   0.00000,  -0.97428  )

     Band symmetry, C_4v (4mm)  point group:

     e(  1 -  1) =    -21.05857  eV     1   --> A_1  G_1 D_1   
     e(  2 -  2) =    -14.46573  eV     1   --> A_1  G_1 D_1   
     e(  3 -  4) =     -9.98189  eV     2   --> E    G_5 D_5   
     e(  5 -  5) =     -0.17497  eV     1   --> A_1  G_1 D_1   
     e(  6 -  6) =      0.44030  eV     1   --> A_1  G_1 D_1   
     e(  7 -  8) =      0.54266  eV     2   --> E    G_5 D_5   

 **************************************************************************

 **************************************************************************

                    xk=(   0.00000,   0.00000,  -0.93531  )

     Band symmetry, C_4v (4mm)  point group:

     e(  1 -  1) =    -21.07426  eV     1   --> A_1  G_1 D_1   
     e(  2 -  2) =    -14.43475  eV     1   --> A_1  G_1 D_1   
     e(  3 -  4) =    -10.00826  eV     2   --> E    G_5 D_5   
     e(  5 -  5) =     -0.20166  eV     1   --> A_1  G_1 D_1   
     e(  6 -  6) =      0.41250  eV     1   --> A_1  G_1 D_1   
     e(  7 -  8) =      0.51472  eV     2   --> E    G_5 D_5   

 **************************************************************************

 **************************************************************************

                    xk=(   0.00000,   0.00000,  -0.89634  )

     Band symmetry, C_4v (4mm)  point group:

     e(  1 -  1) =    -21.08932  eV     1   --> A_1  G_1 D_1   
     e(  2 -  2) =    -14.40486  eV     1   --> A_1  G_1 D_1   
     e(  3 -  4) =    -10.03356  eV     2   --> E    G_5 D_5   
     e(  5 -  5) =     -0.22726  eV     1   --> A_1  G_1 D_1   
     e(  6 -  6) =      0.38583  eV     1   --> A_1  G_1 D_1   
     e(  7 -  8) =      0.48793  eV     2   --> E    G_5 D_5   

 **************************************************************************

 **************************************************************************

                    xk=(   0.00000,   0.00000,  -0.85737  )

     Band symmetry, C_4v (4mm)  point group:

     e(  1 -  1) =    -21.10374  eV     1   --> A_1  G_1 D_1   
     e(  2 -  2) =    -14.37608  eV     1   --> A_1  G_1 D_1   
     e(  3 -  4) =    -10.05778  eV     2   --> E    G_5 D_5   
     e(  5 -  5) =     -0.25178  eV     1   --> A_1  G_1 D_1   
     e(  6 -  6) =      0.36030  eV     1   --> A_1  G_1 D_1   
     e(  7 -  8) =      0.46227  eV     2   --> E    G_5 D_5   

 **************************************************************************

 **************************************************************************

                    xk=(   0.00000,   0.00000,  -0.81840  )

     Band symmetry, C_4v (4mm)  point group:

     e(  1 -  1) =    -21.11754  eV     1   --> A_1  G_1 D_1   
     e(  2 -  2) =    -14.34841  eV     1   --> A_1  G_1 D_1   
     e(  3 -  4) =    -10.08093  eV     2   --> E    G_5 D_5   
     e(  5 -  5) =     -0.27521  eV     1   --> A_1  G_1 D_1   
     e(  6 -  6) =      0.33591  eV     1   --> A_1  G_1 D_1   
     e(  7 -  8) =      0.43776  eV     2   --> E    G_5 D_5   

 **************************************************************************

 **************************************************************************

                    xk=(   0.00000,   0.00000,  -0.77943  )

     Band symmetry, C_4v (4mm)  point group:

     e(  1 -  1) =    -21.13070  eV     1   --> A_1  G_1 D_1   
     e(  2 -  2) =    -14.32189  eV     1   --> A_1  G_1 D_1   
     e(  3 -  4) =    -10.10301  eV     2   --> E    G_5 D_5   
     e(  5 -  5) =     -0.29756  eV     1   --> A_1  G_1 D_1   
     e(  6 -  6) =      0.31265  eV     1   --> A_1  G_1 D_1   
     e(  7 -  8) =      0.41438  eV     2   --> E    G_5 D_5   

 **************************************************************************

 **************************************************************************

                    xk=(   0.00000,   0.00000,  -0.74046  )

     Band symmetry, C_4v (4mm)  point group:

     e(  1 -  1) =    -21.14323  eV     1   --> A_1  G_1 D_1   
     e(  2 -  2) =    -14.29653  eV     1   --> A_1  G_1 D_1   
     e(  3 -  4) =    -10.12401  eV     2   --> E    G_5 D_5   
     e(  5 -  5) =     -0.31882  eV     1   --> A_1  G_1 D_1   
     e(  6 -  6) =      0.29052  eV     1   --> A_1  G_1 D_1   
     e(  7 -  8) =      0.39215  eV     2   --> E    G_5 D_5   

 **************************************************************************

 **************************************************************************

                    xk=(   0.00000,   0.00000,  -0.70148  )

     Band symmetry, C_4v (4mm)  point group:

     e(  1 -  1) =    -21.15512  eV     1   --> A_1  G_1 D_1   
     e(  2 -  2) =    -14.27235  eV     1   --> A_1  G_1 D_1   
     e(  3 -  4) =    -10.14393  eV     2   --> E    G_5 D_5   
     e(  5 -  5) =     -0.33900  eV     1   --> A_1  G_1 D_1   
     e(  6 -  6) =      0.26953  eV     1   --> A_1  G_1 D_1   
     e(  7 -  8) =      0.37105  eV     2   --> E    G_5 D_5   

 **************************************************************************

 **************************************************************************

                    xk=(   0.00000,   0.00000,  -0.66251  )

     Band symmetry, C_4v (4mm)  point group:

     e(  1 -  1) =    -21.16638  eV     1   --> A_1  G_1 D_1   
     e(  2 -  2) =    -14.24936  eV     1   --> A_1  G_1 D_1   
     e(  3 -  4) =    -10.16279  eV     2   --> E    G_5 D_5   
     e(  5 -  5) =     -0.35809  eV     1   --> A_1  G_1 D_1   
     e(  6 -  6) =      0.24967  eV     1   --> A_1  G_1 D_1   
     e(  7 -  8) =      0.35110  eV     2   --> E    G_5 D_5   

 **************************************************************************

 **************************************************************************

                    xk=(   0.00000,   0.00000,  -0.62354  )

     Band symmetry, C_4v (4mm)  point group:

     e(  1 -  1) =    -21.17699  eV     1   --> A_1  G_1 D_1   
     e(  2 -  2) =    -14.22759  eV     1   --> A_1  G_1 D_1   
     e(  3 -  4) =    -10.18056  eV     2   --> E    G_5 D_5   
     e(  5 -  5) =     -0.37609  eV     1   --> A_1  G_1 D_1   
     e(  6 -  6) =      0.23095  eV     1   --> A_1  G_1 D_1   
     e(  7 -  8) =      0.33228  eV     2   --> E    G_5 D_5   

 **************************************************************************

 **************************************************************************

                    xk=(   0.00000,   0.00000,  -0.58457  )

     Band symmetry, C_4v (4mm)  point group:

     e(  1 -  1) =    -21.18697  eV     1   --> A_1  G_1 D_1   
     e(  2 -  2) =    -14.20705  eV     1   --> A_1  G_1 D_1   
     e(  3 -  4) =    -10.19726  eV     2   --> E    G_5 D_5   
     e(  5 -  5) =     -0.39300  eV     1   --> A_1  G_1 D_1   
     e(  6 -  6) =      0.21336  eV     1   --> A_1  G_1 D_1   
     e(  7 -  8) =      0.31461  eV     2   --> E    G_5 D_5   

 **************************************************************************

 **************************************************************************

                    xk=(   0.00000,   0.00000,  -0.54560  )

     Band symmetry, C_4v (4mm)  point group:

     e(  1 -  1) =    -21.19631  eV     1   --> A_1  G_1 D_1   
     e(  2 -  2) =    -14.18776  eV     1   --> A_1  G_1 D_1   
     e(  3 -  4) =    -10.21288  eV     2   --> E    G_5 D_5   
     e(  5 -  5) =     -0.40882  eV     1   --> A_1  G_1 D_1   
     e(  6 -  6) =      0.19691  eV     1   --> A_1  G_1 D_1   
     e(  7 -  8) =      0.29807  eV     2   --> E    G_5 D_5   

 **************************************************************************

 **************************************************************************

                    xk=(   0.00000,   0.00000,  -0.50663  )

     Band symmetry, C_4v (4mm)  point group:

     e(  1 -  1) =    -21.20501  eV     1   --> A_1  G_1 D_1   
     e(  2 -  2) =    -14.16974  eV     1   --> A_1  G_1 D_1   
     e(  3 -  4) =    -10.22743  eV     2   --> E    G_5 D_5   
     e(  5 -  5) =     -0.42356  eV     1   --> A_1  G_1 D_1   
     e(  6 -  6) =      0.18159  eV     1   --> A_1  G_1 D_1   
     e(  7 -  8) =      0.28268  eV     2   --> E    G_5 D_5   

 **************************************************************************

 **************************************************************************

                    xk=(   0.00000,   0.00000,  -0.46766  )

     Band symmetry, C_4v (4mm)  point group:

     e(  1 -  1) =    -21.21307  eV     1   --> A_1  G_1 D_1   
     e(  2 -  2) =    -14.15299  eV     1   --> A_1  G_1 D_1   
     e(  3 -  4) =    -10.24090  eV     2   --> E    G_5 D_5   
     e(  5 -  5) =     -0.43720  eV     1   --> A_1  G_1 D_1   
     e(  6 -  6) =      0.16741  eV     1   --> A_1  G_1 D_1   
     e(  7 -  8) =      0.26842  eV     2   --> E    G_5 D_5   

 **************************************************************************

 **************************************************************************

                    xk=(   0.00000,   0.00000,  -0.42869  )

     Band symmetry, C_4v (4mm)  point group:

     e(  1 -  1) =    -21.22049  eV     1   --> A_1  G_1 D_1   
     e(  2 -  2) =    -14.13752  eV     1   --> A_1  G_1 D_1   
     e(  3 -  4) =    -10.25330  eV     2   --> E    G_5 D_5   
     e(  5 -  5) =     -0.44975  eV     1   --> A_1  G_1 D_1   
     e(  6 -  6) =      0.15436  eV     1   --> A_1  G_1 D_1   
     e(  7 -  8) =      0.25531  eV     2   --> E    G_5 D_5   

 **************************************************************************

 **************************************************************************

                    xk=(   0.00000,   0.00000,  -0.38971  )

     Band symmetry, C_4v (4mm)  point group:

     e(  1 -  1) =    -21.22726  eV     1   --> A_1  G_1 D_1   
     e(  2 -  2) =    -14.12337  eV     1   --> A_1  G_1 D_1   
     e(  3 -  4) =    -10.26461  eV     2   --> E    G_5 D_5   
     e(  5 -  5) =     -0.46122  eV     1   --> A_1  G_1 D_1   
     e(  6 -  6) =      0.14244  eV     1   --> A_1  G_1 D_1   
     e(  7 -  8) =      0.24334  eV     2   --> E    G_5 D_5   

 **************************************************************************

 **************************************************************************

                    xk=(   0.00000,   0.00000,  -0.35074  )

     Band symmetry, C_4v (4mm)  point group:

     e(  1 -  1) =    -21.23339  eV     1   --> A_1  G_1 D_1   
     e(  2 -  2) =    -14.11052  eV     1   --> A_1  G_1 D_1   
     e(  3 -  4) =    -10.27485  eV     2   --> E    G_5 D_5   
     e(  5 -  5) =     -0.47159  eV     1   --> A_1  G_1 D_1   
     e(  6 -  6) =      0.13166  eV     1   --> A_1  G_1 D_1   
     e(  7 -  8) =      0.23250  eV     2   --> E    G_5 D_5   

 **************************************************************************

 **************************************************************************

                    xk=(   0.00000,   0.00000,  -0.31177  )

     Band symmetry, C_4v (4mm)  point group:

     e(  1 -  1) =    -21.23888  eV     1   --> A_1  G_1 D_1   
     e(  2 -  2) =    -14.09900  eV     1   --> A_1  G_1 D_1   
     e(  3 -  4) =    -10.28402  eV     2   --> E    G_5 D_5   
     e(  5 -  5) =     -0.48087  eV     1   --> A_1  G_1 D_1   
     e(  6 -  6) =      0.12202  eV     1   --> A_1  G_1 D_1   
     e(  7 -  8) =      0.22281  eV     2   --> E    G_5 D_5   

 **************************************************************************

 **************************************************************************

                    xk=(   0.00000,   0.00000,  -0.27280  )

     Band symmetry, C_4v (4mm)  point group:

     e(  1 -  1) =    -21.24372  eV     1   --> A_1  G_1 D_1   
     e(  2 -  2) =    -14.08881  eV     1   --> A_1  G_1 D_1   
     e(  3 -  4) =    -10.29210  eV     2   --> E    G_5 D_5   
     e(  5 -  5) =     -0.48906  eV     1   --> A_1  G_1 D_1   
     e(  6 -  6) =      0.11351  eV     1   --> A_1  G_1 D_1   
     e(  7 -  8) =      0.21426  eV     2   --> E    G_5 D_5   

 **************************************************************************

 **************************************************************************

                    xk=(   0.00000,   0.00000,  -0.23383  )

     Band symmetry, C_4v (4mm)  point group:

     e(  1 -  1) =    -21.24792  eV     1   --> A_1  G_1 D_1   
     e(  2 -  2) =    -14.07997  eV     1   --> A_1  G_1 D_1   
     e(  3 -  4) =    -10.29911  eV     2   --> E    G_5 D_5   
     e(  5 -  5) =     -0.49616  eV     1   --> A_1  G_1 D_1   
     e(  6 -  6) =      0.10613  eV     1   --> A_1  G_1 D_1   
     e(  7 -  8) =      0.20685  eV     2   --> E    G_5 D_5   

 **************************************************************************

 **************************************************************************

                    xk=(   0.00000,   0.00000,  -0.19486  )

     Band symmetry, C_4v (4mm)  point group:

     e(  1 -  1) =    -21.25147  eV     1   --> A_1  G_1 D_1   
     e(  2 -  2) =    -14.07247  eV     1   --> A_1  G_1 D_1   
     e(  3 -  4) =    -10.30504  eV     2   --> E    G_5 D_5   
     e(  5 -  5) =     -0.50217  eV     1   --> A_1  G_1 D_1   
     e(  6 -  6) =      0.09989  eV     1   --> A_1  G_1 D_1   
     e(  7 -  8) =      0.20057  eV     2   --> E    G_5 D_5   

 **************************************************************************

 **************************************************************************

                    xk=(   0.00000,   0.00000,  -0.15589  )

     Band symmetry, C_4v (4mm)  point group:

     e(  1 -  1) =    -21.25438  eV     1   --> A_1  G_1 D_1   
     e(  2 -  2) =    -14.06633  eV     1   --> A_1  G_1 D_1   
     e(  3 -  4) =    -10.30989  eV     2   --> E    G_5 D_5   
     e(  5 -  5) =     -0.50708  eV     1   --> A_1  G_1 D_1   
     e(  6 -  6) =      0.09478  eV     1   --> A_1  G_1 D_1   
     e(  7 -  8) =      0.19544  eV     2   --> E    G_5 D_5   

 **************************************************************************

 **************************************************************************

                    xk=(   0.00000,   0.00000,  -0.11691  )

     Band symmetry, C_4v (4mm)  point group:

     e(  1 -  1) =    -21.25664  eV     1   --> A_1  G_1 D_1   
     e(  2 -  2) =    -14.06154  eV     1   --> A_1  G_1 D_1   
     e(  3 -  4) =    -10.31366  eV     2   --> E    G_5 D_5   
     e(  5 -  5) =     -0.51091  eV     1   --> A_1  G_1 D_1   
     e(  6 -  6) =      0.09081  eV     1   --> A_1  G_1 D_1   
     e(  7 -  8) =      0.19145  eV     2   --> E    G_5 D_5   

 **************************************************************************

 **************************************************************************

                    xk=(   0.00000,   0.00000,  -0.07794  )

     Band symmetry, C_4v (4mm)  point group:

     e(  1 -  1) =    -21.25825  eV     1   --> A_1  G_1 D_1   
     e(  2 -  2) =    -14.05812  eV     1   --> A_1  G_1 D_1   
     e(  3 -  4) =    -10.31635  eV     2   --> E    G_5 D_5   
     e(  5 -  5) =     -0.51364  eV     1   --> A_1  G_1 D_1   
     e(  6 -  6) =      0.08797  eV     1   --> A_1  G_1 D_1   
     e(  7 -  8) =      0.18860  eV     2   --> E    G_5 D_5   

 **************************************************************************

 **************************************************************************

                    xk=(   0.00000,   0.00000,  -0.03897  )

     Band symmetry, C_4v (4mm)  point group:

     e(  1 -  1) =    -21.25922  eV     1   --> A_1  G_1 D_1   
     e(  2 -  2) =    -14.05607  eV     1   --> A_1  G_1 D_1   
     e(  3 -  4) =    -10.31797  eV     2   --> E    G_5 D_5   
     e(  5 -  5) =     -0.51528  eV     1   --> A_1  G_1 D_1   
     e(  6 -  6) =      0.08627  eV     1   --> A_1  G_1 D_1   
     e(  7 -  8) =      0.18689  eV     2   --> E    G_5 D_5   

 **************************************************************************

 **************************************************************************

                    xk=(   0.00000,   0.00000,   0.00000  )

     Band symmetry, C_4v (4mm)  point group:

     e(  1 -  1) =    -21.25955  eV     1   --> A_1  G_1 D_1   
     e(  2 -  2) =    -14.05539  eV     1   --> A_1  G_1 D_1   
     e(  3 -  4) =    -10.31851  eV     2   --> E    G_5 D_5   
     e(  5 -  5) =     -0.51582  eV     1   --> A_1  G_1 D_1   
     e(  6 -  6) =      0.08570  eV     1   --> A_1  G_1 D_1   
     e(  7 -  8) =      0.18632  eV     2   --> E    G_5 D_5   

 **************************************************************************

 **************************************************************************

                    xk=(   0.00000,   0.00000,   0.03897  )

     Band symmetry, C_4v (4mm)  point group:

     e(  1 -  1) =    -21.25922  eV     1   --> A_1  G_1 D_1   
     e(  2 -  2) =    -14.05607  eV     1   --> A_1  G_1 D_1   
     e(  3 -  4) =    -10.31797  eV     2   --> E    G_5 D_5   
     e(  5 -  5) =     -0.51528  eV     1   --> A_1  G_1 D_1   
     e(  6 -  6) =      0.08627  eV     1   --> A_1  G_1 D_1   
     e(  7 -  8) =      0.18689  eV     2   --> E    G_5 D_5   

 **************************************************************************

 **************************************************************************

                    xk=(   0.00000,   0.00000,   0.07794  )

     Band symmetry, C_4v (4mm)  point group:

     e(  1 -  1) =    -21.25825  eV     1   --> A_1  G_1 D_1   
     e(  2 -  2) =    -14.05812  eV     1   --> A_1  G_1 D_1   
     e(  3 -  4) =    -10.31635  eV     2   --> E    G_5 D_5   
     e(  5 -  5) =     -0.51364  eV     1   --> A_1  G_1 D_1   
     e(  6 -  6) =      0.08797  eV     1   --> A_1  G_1 D_1   
     e(  7 -  8) =      0.18860  eV     2   --> E    G_5 D_5   

 **************************************************************************

 **************************************************************************

                    xk=(   0.00000,   0.00000,   0.11691  )

     Band symmetry, C_4v (4mm)  point group:

     e(  1 -  1) =    -21.25664  eV     1   --> A_1  G_1 D_1   
     e(  2 -  2) =    -14.06154  eV     1   --> A_1  G_1 D_1   
     e(  3 -  4) =    -10.31366  eV     2   --> E    G_5 D_5   
     e(  5 -  5) =     -0.51091  eV     1   --> A_1  G_1 D_1   
     e(  6 -  6) =      0.09081  eV     1   --> A_1  G_1 D_1   
     e(  7 -  8) =      0.19145  eV     2   --> E    G_5 D_5   

 **************************************************************************

 **************************************************************************

                    xk=(   0.00000,   0.00000,   0.15589  )

     Band symmetry, C_4v (4mm)  point group:

     e(  1 -  1) =    -21.25438  eV     1   --> A_1  G_1 D_1   
     e(  2 -  2) =    -14.06633  eV     1   --> A_1  G_1 D_1   
     e(  3 -  4) =    -10.30989  eV     2   --> E    G_5 D_5   
     e(  5 -  5) =     -0.50708  eV     1   --> A_1  G_1 D_1   
     e(  6 -  6) =      0.09478  eV     1   --> A_1  G_1 D_1   
     e(  7 -  8) =      0.19544  eV     2   --> E    G_5 D_5   

 **************************************************************************

 **************************************************************************

                    xk=(   0.00000,   0.00000,   0.19486  )

     Band symmetry, C_4v (4mm)  point group:

     e(  1 -  1) =    -21.25147  eV     1   --> A_1  G_1 D_1   
     e(  2 -  2) =    -14.07247  eV     1   --> A_1  G_1 D_1   
     e(  3 -  4) =    -10.30504  eV     2   --> E    G_5 D_5   
     e(  5 -  5) =     -0.50217  eV     1   --> A_1  G_1 D_1   
     e(  6 -  6) =      0.09989  eV     1   --> A_1  G_1 D_1   
     e(  7 -  8) =      0.20057  eV     2   --> E    G_5 D_5   

 **************************************************************************

 **************************************************************************

                    xk=(   0.00000,   0.00000,   0.23383  )

     Band symmetry, C_4v (4mm)  point group:

     e(  1 -  1) =    -21.24792  eV     1   --> A_1  G_1 D_1   
     e(  2 -  2) =    -14.07997  eV     1   --> A_1  G_1 D_1   
     e(  3 -  4) =    -10.29911  eV     2   --> E    G_5 D_5   
     e(  5 -  5) =     -0.49616  eV     1   --> A_1  G_1 D_1   
     e(  6 -  6) =      0.10613  eV     1   --> A_1  G_1 D_1   
     e(  7 -  8) =      0.20685  eV     2   --> E    G_5 D_5   

 **************************************************************************

 **************************************************************************

                    xk=(   0.00000,   0.00000,   0.27280  )

     Band symmetry, C_4v (4mm)  point group:

     e(  1 -  1) =    -21.24372  eV     1   --> A_1  G_1 D_1   
     e(  2 -  2) =    -14.08881  eV     1   --> A_1  G_1 D_1   
     e(  3 -  4) =    -10.29210  eV     2   --> E    G_5 D_5   
     e(  5 -  5) =     -0.48906  eV     1   --> A_1  G_1 D_1   
     e(  6 -  6) =      0.11351  eV     1   --> A_1  G_1 D_1   
     e(  7 -  8) =      0.21426  eV     2   --> E    G_5 D_5   

 **************************************************************************

 **************************************************************************

                    xk=(   0.00000,   0.00000,   0.31177  )

     Band symmetry, C_4v (4mm)  point group:

     e(  1 -  1) =    -21.23888  eV     1   --> A_1  G_1 D_1   
     e(  2 -  2) =    -14.09900  eV     1   --> A_1  G_1 D_1   
     e(  3 -  4) =    -10.28402  eV     2   --> E    G_5 D_5   
     e(  5 -  5) =     -0.48087  eV     1   --> A_1  G_1 D_1   
     e(  6 -  6) =      0.12202  eV     1   --> A_1  G_1 D_1   
     e(  7 -  8) =      0.22281  eV     2   --> E    G_5 D_5   

 **************************************************************************

 **************************************************************************

                    xk=(   0.00000,   0.00000,   0.35074  )

     Band symmetry, C_4v (4mm)  point group:

     e(  1 -  1) =    -21.23339  eV     1   --> A_1  G_1 D_1   
     e(  2 -  2) =    -14.11052  eV     1   --> A_1  G_1 D_1   
     e(  3 -  4) =    -10.27485  eV     2   --> E    G_5 D_5   
     e(  5 -  5) =     -0.47159  eV     1   --> A_1  G_1 D_1   
     e(  6 -  6) =      0.13166  eV     1   --> A_1  G_1 D_1   
     e(  7 -  8) =      0.23250  eV     2   --> E    G_5 D_5   

 **************************************************************************

 **************************************************************************

                    xk=(   0.00000,   0.00000,   0.38971  )

     Band symmetry, C_4v (4mm)  point group:

     e(  1 -  1) =    -21.22726  eV     1   --> A_1  G_1 D_1   
     e(  2 -  2) =    -14.12337  eV     1   --> A_1  G_1 D_1   
     e(  3 -  4) =    -10.26461  eV     2   --> E    G_5 D_5   
     e(  5 -  5) =     -0.46122  eV     1   --> A_1  G_1 D_1   
     e(  6 -  6) =      0.14244  eV     1   --> A_1  G_1 D_1   
     e(  7 -  8) =      0.24334  eV     2   --> E    G_5 D_5   

 **************************************************************************

 **************************************************************************

                    xk=(   0.00000,   0.00000,   0.42869  )

     Band symmetry, C_4v (4mm)  point group:

     e(  1 -  1) =    -21.22049  eV     1   --> A_1  G_1 D_1   
     e(  2 -  2) =    -14.13752  eV     1   --> A_1  G_1 D_1   
     e(  3 -  4) =    -10.25330  eV     2   --> E    G_5 D_5   
     e(  5 -  5) =     -0.44975  eV     1   --> A_1  G_1 D_1   
     e(  6 -  6) =      0.15436  eV     1   --> A_1  G_1 D_1   
     e(  7 -  8) =      0.25531  eV     2   --> E    G_5 D_5   

 **************************************************************************

 **************************************************************************

                    xk=(   0.00000,   0.00000,   0.46766  )

     Band symmetry, C_4v (4mm)  point group:

     e(  1 -  1) =    -21.21307  eV     1   --> A_1  G_1 D_1   
     e(  2 -  2) =    -14.15299  eV     1   --> A_1  G_1 D_1   
     e(  3 -  4) =    -10.24090  eV     2   --> E    G_5 D_5   
     e(  5 -  5) =     -0.43720  eV     1   --> A_1  G_1 D_1   
     e(  6 -  6) =      0.16741  eV     1   --> A_1  G_1 D_1   
     e(  7 -  8) =      0.26842  eV     2   --> E    G_5 D_5   

 **************************************************************************

 **************************************************************************

                    xk=(   0.00000,   0.00000,   0.50663  )

     Band symmetry, C_4v (4mm)  point group:

     e(  1 -  1) =    -21.20501  eV     1   --> A_1  G_1 D_1   
     e(  2 -  2) =    -14.16974  eV     1   --> A_1  G_1 D_1   
     e(  3 -  4) =    -10.22743  eV     2   --> E    G_5 D_5   
     e(  5 -  5) =     -0.42356  eV     1   --> A_1  G_1 D_1   
     e(  6 -  6) =      0.18159  eV     1   --> A_1  G_1 D_1   
     e(  7 -  8) =      0.28268  eV     2   --> E    G_5 D_5   

 **************************************************************************

 **************************************************************************

                    xk=(   0.00000,   0.00000,   0.54560  )

     Band symmetry, C_4v (4mm)  point group:

     e(  1 -  1) =    -21.19631  eV     1   --> A_1  G_1 D_1   
     e(  2 -  2) =    -14.18776  eV     1   --> A_1  G_1 D_1   
     e(  3 -  4) =    -10.21288  eV     2   --> E    G_5 D_5   
     e(  5 -  5) =     -0.40882  eV     1   --> A_1  G_1 D_1   
     e(  6 -  6) =      0.19691  eV     1   --> A_1  G_1 D_1   
     e(  7 -  8) =      0.29807  eV     2   --> E    G_5 D_5   

 **************************************************************************

 **************************************************************************

                    xk=(   0.00000,   0.00000,   0.58457  )

     Band symmetry, C_4v (4mm)  point group:

     e(  1 -  1) =    -21.18697  eV     1   --> A_1  G_1 D_1   
     e(  2 -  2) =    -14.20705  eV     1   --> A_1  G_1 D_1   
     e(  3 -  4) =    -10.19726  eV     2   --> E    G_5 D_5   
     e(  5 -  5) =     -0.39300  eV     1   --> A_1  G_1 D_1   
     e(  6 -  6) =      0.21336  eV     1   --> A_1  G_1 D_1   
     e(  7 -  8) =      0.31461  eV     2   --> E    G_5 D_5   

 **************************************************************************

 **************************************************************************

                    xk=(   0.00000,   0.00000,   0.62354  )

     Band symmetry, C_4v (4mm)  point group:

     e(  1 -  1) =    -21.17699  eV     1   --> A_1  G_1 D_1   
     e(  2 -  2) =    -14.22759  eV     1   --> A_1  G_1 D_1   
     e(  3 -  4) =    -10.18056  eV     2   --> E    G_5 D_5   
     e(  5 -  5) =     -0.37609  eV     1   --> A_1  G_1 D_1   
     e(  6 -  6) =      0.23095  eV     1   --> A_1  G_1 D_1   
     e(  7 -  8) =      0.33228  eV     2   --> E    G_5 D_5   

 **************************************************************************

 **************************************************************************

                    xk=(   0.00000,   0.00000,   0.66251  )

     Band symmetry, C_4v (4mm)  point group:

     e(  1 -  1) =    -21.16638  eV     1   --> A_1  G_1 D_1   
     e(  2 -  2) =    -14.24936  eV     1   --> A_1  G_1 D_1   
     e(  3 -  4) =    -10.16279  eV     2   --> E    G_5 D_5   
     e(  5 -  5) =     -0.35809  eV     1   --> A_1  G_1 D_1   
     e(  6 -  6) =      0.24967  eV     1   --> A_1  G_1 D_1   
     e(  7 -  8) =      0.35110  eV     2   --> E    G_5 D_5   

 **************************************************************************

 **************************************************************************

                    xk=(   0.00000,   0.00000,   0.70148  )

     Band symmetry, C_4v (4mm)  point group:

     e(  1 -  1) =    -21.15512  eV     1   --> A_1  G_1 D_1   
     e(  2 -  2) =    -14.27235  eV     1   --> A_1  G_1 D_1   
     e(  3 -  4) =    -10.14393  eV     2   --> E    G_5 D_5   
     e(  5 -  5) =     -0.33900  eV     1   --> A_1  G_1 D_1   
     e(  6 -  6) =      0.26953  eV     1   --> A_1  G_1 D_1   
     e(  7 -  8) =      0.37105  eV     2   --> E    G_5 D_5   

 **************************************************************************

 **************************************************************************

                    xk=(   0.00000,   0.00000,   0.74046  )

     Band symmetry, C_4v (4mm)  point group:

     e(  1 -  1) =    -21.14323  eV     1   --> A_1  G_1 D_1   
     e(  2 -  2) =    -14.29653  eV     1   --> A_1  G_1 D_1   
     e(  3 -  4) =    -10.12401  eV     2   --> E    G_5 D_5   
     e(  5 -  5) =     -0.31882  eV     1   --> A_1  G_1 D_1   
     e(  6 -  6) =      0.29052  eV     1   --> A_1  G_1 D_1   
[...]
     e(  5 -  6) =     -1.47581  eV     2   --> E    G_5 D_5   
     e(  7 -  7) =      2.11799  eV     1   --> A_1  G_1 D_1   
     e(  8 -  8) =      2.86432  eV     1   --> A_1  G_1 D_1   

 **************************************************************************

 **************************************************************************

                    xk=(   0.00000,   0.00000,   2.76697  )

     Band symmetry, C_4v (4mm)  point group:

     e(  1 -  1) =    -19.69772  eV     1   --> A_1  G_1 D_1   
     e(  2 -  2) =    -16.66581  eV     1   --> A_1  G_1 D_1   
     e(  3 -  4) =     -7.62320  eV     2   --> E    G_5 D_5   
     e(  5 -  6) =     -1.60379  eV     2   --> E    G_5 D_5   
     e(  7 -  7) =      2.19197  eV     1   --> A_1  G_1 D_1   
     e(  8 -  8) =      2.94421  eV     1   --> A_1  G_1 D_1   

 **************************************************************************

 **************************************************************************

                    xk=(   0.00000,   0.00000,   2.80594  )

     Band symmetry, C_4v (4mm)  point group:

     e(  1 -  1) =    -19.65551  eV     1   --> A_1  G_1 D_1   
     e(  2 -  2) =    -16.72227  eV     1   --> A_1  G_1 D_1   
     e(  3 -  4) =     -7.54756  eV     2   --> E    G_5 D_5   
     e(  5 -  6) =     -1.73108  eV     2   --> E    G_5 D_5   
     e(  7 -  7) =      2.26685  eV     1   --> A_1  G_1 D_1   
     e(  8 -  8) =      3.02522  eV     1   --> A_1  G_1 D_1   

 **************************************************************************

 **************************************************************************

                    xk=(   0.00000,   0.00000,   2.84491  )

     Band symmetry, C_4v (4mm)  point group:

     e(  1 -  1) =    -19.61284  eV     1   --> A_1  G_1 D_1   
     e(  2 -  2) =    -16.77878  eV     1   --> A_1  G_1 D_1   
     e(  3 -  4) =     -7.47092  eV     2   --> E    G_5 D_5   
     e(  5 -  6) =     -1.85766  eV     2   --> E    G_5 D_5   
     e(  7 -  7) =      2.34262  eV     1   --> A_1  G_1 D_1   
     e(  8 -  8) =      3.10737  eV     1   --> A_1  G_1 D_1   

 **************************************************************************

 **************************************************************************

                    xk=(   0.00000,   0.00000,   2.88388  )

     Band symmetry, C_4v (4mm)  point group:

     e(  1 -  1) =    -19.56972  eV     1   --> A_1  G_1 D_1   
     e(  2 -  2) =    -16.83534  eV     1   --> A_1  G_1 D_1   
     e(  3 -  4) =     -7.39330  eV     2   --> E    G_5 D_5   
     e(  5 -  6) =     -1.98352  eV     2   --> E    G_5 D_5   
     e(  7 -  7) =      2.41926  eV     1   --> A_1  G_1 D_1   
     e(  8 -  8) =      3.19064  eV     1   --> A_1  G_1 D_1   

 **************************************************************************

 **************************************************************************

                    xk=(   0.00000,   0.00000,   2.92285  )

     Band symmetry, C_4v (4mm)  point group:

     e(  1 -  1) =    -19.52615  eV     1   --> A_1  G_1 D_1   
     e(  2 -  2) =    -16.89191  eV     1   --> A_1  G_1 D_1   
     e(  3 -  4) =     -7.31469  eV     2   --> E    G_5 D_5   
     e(  5 -  6) =     -2.10863  eV     2   --> E    G_5 D_5   
     e(  7 -  7) =      2.49676  eV     1   --> A_1  G_1 D_1   
     e(  8 -  8) =      3.27504  eV     1   --> A_1  G_1 D_1   

 **************************************************************************

 **************************************************************************

                    xk=(   0.00000,   0.00000,   2.96183  )

     Band symmetry, C_4v (4mm)  point group:

     e(  1 -  1) =    -19.48215  eV     1   --> A_1  G_1 D_1   
     e(  2 -  2) =    -16.94848  eV     1   --> A_1  G_1 D_1   
     e(  3 -  4) =     -7.23511  eV     2   --> E    G_5 D_5   
     e(  5 -  6) =     -2.23297  eV     2   --> E    G_5 D_5   
     e(  7 -  7) =      2.57510  eV     1   --> A_1  G_1 D_1   
     e(  8 -  8) =      3.36056  eV     1   --> A_1  G_1 D_1   

 **************************************************************************

 **************************************************************************

                    xk=(   0.00000,   0.00000,   3.00080  )

     Band symmetry, C_4v (4mm)  point group:

     e(  1 -  1) =    -19.43771  eV     1   --> A_1  G_1 D_1   
     e(  2 -  2) =    -17.00504  eV     1   --> A_1  G_1 D_1   
     e(  3 -  4) =     -7.15455  eV     2   --> E    G_5 D_5   
     e(  5 -  6) =     -2.35654  eV     2   --> E    G_5 D_5   
     e(  7 -  7) =      2.65427  eV     1   --> A_1  G_1 D_1   
     e(  8 -  8) =      3.44721  eV     1   --> A_1  G_1 D_1   

 **************************************************************************

 **************************************************************************

                    xk=(   0.00000,   0.00000,   3.03977  )

     Band symmetry, C_4v (4mm)  point group:

     e(  1 -  1) =    -19.39286  eV     1   --> A_1  G_1 D_1   
     e(  2 -  2) =    -17.06157  eV     1   --> A_1  G_1 D_1   
     e(  3 -  4) =     -7.07304  eV     2   --> E    G_5 D_5   
     e(  5 -  6) =     -2.47930  eV     2   --> E    G_5 D_5   
     e(  7 -  7) =      2.73426  eV     1   --> A_1  G_1 D_1   
     e(  8 -  8) =      3.53498  eV     1   --> A_1  G_1 D_1   

 **************************************************************************

 **************************************************************************

                    xk=(   0.00000,   0.00000,   3.07874  )

     Band symmetry, C_4v (4mm)  point group:

     e(  1 -  1) =    -19.34759  eV     1   --> A_1  G_1 D_1   
     e(  2 -  2) =    -17.11805  eV     1   --> A_1  G_1 D_1   
     e(  3 -  4) =     -6.99057  eV     2   --> E    G_5 D_5   
     e(  5 -  6) =     -2.60124  eV     2   --> E    G_5 D_5   
     e(  7 -  7) =      2.81503  eV     1   --> A_1  G_1 D_1   
     e(  8 -  8) =      3.62388  eV     1   --> A_1  G_1 D_1   

 **************************************************************************

 **************************************************************************

                    xk=(   0.00000,   0.00000,   3.11771  )

     Band symmetry, C_4v (4mm)  point group:

     e(  1 -  1) =    -19.30193  eV     1   --> A_1  G_1 D_1   
     e(  2 -  2) =    -17.17445  eV     1   --> A_1  G_1 D_1   
     e(  3 -  4) =     -6.90717  eV     2   --> E    G_5 D_5   
     e(  5 -  6) =     -2.72234  eV     2   --> E    G_5 D_5   
     e(  7 -  7) =      2.89657  eV     1   --> A_1  G_1 D_1   
     e(  8 -  8) =      3.71389  eV     1   --> A_1  G_1 D_1   

 **************************************************************************

 **************************************************************************

                    xk=(   0.00000,   0.00000,   3.15668  )

     Band symmetry, C_4v (4mm)  point group:

     e(  1 -  1) =    -19.25587  eV     1   --> A_1  G_1 D_1   
     e(  2 -  2) =    -17.23076  eV     1   --> A_1  G_1 D_1   
     e(  3 -  4) =     -6.82284  eV     2   --> E    G_5 D_5   
     e(  5 -  6) =     -2.84258  eV     2   --> E    G_5 D_5   
     e(  7 -  7) =      2.97886  eV     1   --> A_1  G_1 D_1   
     e(  8 -  8) =      3.80503  eV     1   --> A_1  G_1 D_1   

 **************************************************************************

 **************************************************************************

                    xk=(   0.00000,   0.00000,   3.19565  )

     Band symmetry, C_4v (4mm)  point group:

     e(  1 -  1) =    -19.20945  eV     1   --> A_1  G_1 D_1   
     e(  2 -  2) =    -17.28697  eV     1   --> A_1  G_1 D_1   
     e(  3 -  4) =     -6.73761  eV     2   --> E    G_5 D_5   
     e(  5 -  6) =     -2.96193  eV     2   --> E    G_5 D_5   
     e(  7 -  7) =      3.06188  eV     1   --> A_1  G_1 D_1   
     e(  8 -  8) =      3.89730  eV     1   --> A_1  G_1 D_1   

 **************************************************************************

 **************************************************************************

                    xk=(   0.00000,   0.00000,   3.23462  )

     Band symmetry, C_4v (4mm)  point group:

     e(  1 -  1) =    -19.16266  eV     1   --> A_1  G_1 D_1   
     e(  2 -  2) =    -17.34306  eV     1   --> A_1  G_1 D_1   
     e(  3 -  4) =     -6.65148  eV     2   --> E    G_5 D_5   
     e(  5 -  6) =     -3.08037  eV     2   --> E    G_5 D_5   
     e(  7 -  7) =      3.14558  eV     1   --> A_1  G_1 D_1   
     e(  8 -  8) =      3.99068  eV     1   --> A_1  G_1 D_1   

 **************************************************************************

 **************************************************************************

                    xk=(   0.00000,   0.00000,   3.27360  )

     Band symmetry, C_4v (4mm)  point group:

     e(  1 -  1) =    -19.11553  eV     1   --> A_1  G_1 D_1   
     e(  2 -  2) =    -17.39898  eV     1   --> A_1  G_1 D_1   
     e(  3 -  4) =     -6.56449  eV     2   --> E    G_5 D_5   
     e(  5 -  6) =     -3.19786  eV     2   --> E    G_5 D_5   
     e(  7 -  7) =      3.22996  eV     1   --> A_1  G_1 D_1   
     e(  8 -  8) =      4.08517  eV     1   --> A_1  G_1 D_1   

 **************************************************************************

 **************************************************************************

                    xk=(   0.00000,   0.00000,   3.31257  )

     Band symmetry, C_4v (4mm)  point group:

     e(  1 -  1) =    -19.06807  eV     1   --> A_1  G_1 D_1   
     e(  2 -  2) =    -17.45473  eV     1   --> A_1  G_1 D_1   
     e(  3 -  4) =     -6.47666  eV     2   --> E    G_5 D_5   
     e(  5 -  6) =     -3.31438  eV     2   --> E    G_5 D_5   
     e(  7 -  7) =      3.31497  eV     1   --> A_1  G_1 D_1   
     e(  8 -  8) =      4.18079  eV     1   --> A_1  G_1 D_1   

 **************************************************************************

 **************************************************************************

                    xk=(   0.00000,   0.00000,   3.35154  )

     Band symmetry, C_4v (4mm)  point group:

     e(  1 -  1) =    -19.02031  eV     1   --> A_1  G_1 D_1   
     e(  2 -  2) =    -17.51027  eV     1   --> A_1  G_1 D_1   
     e(  3 -  4) =     -6.38802  eV     2   --> E    G_5 D_5   
     e(  5 -  6) =     -3.42987  eV     2   --> E    G_5 D_5   
     e(  7 -  7) =      3.40058  eV     1   --> A_1  G_1 D_1   
     e(  8 -  8) =      4.27752  eV     1   --> A_1  G_1 D_1   

 **************************************************************************

 **************************************************************************

                    xk=(   0.00000,   0.00000,   3.39051  )

     Band symmetry, C_4v (4mm)  point group:

     e(  1 -  1) =    -18.97228  eV     1   --> A_1  G_1 D_1   
     e(  2 -  2) =    -17.56557  eV     1   --> A_1  G_1 D_1   
     e(  3 -  4) =     -6.29862  eV     2   --> E    G_5 D_5   
     e(  5 -  6) =     -3.54430  eV     2   --> E    G_5 D_5   
     e(  7 -  7) =      3.48675  eV     1   --> A_1  G_1 D_1   
     e(  8 -  8) =      4.37535  eV     1   --> A_1  G_1 D_1   

 **************************************************************************

 **************************************************************************

                    xk=(   0.00000,   0.00000,   3.42948  )

     Band symmetry, C_4v (4mm)  point group:

     e(  1 -  1) =    -18.92401  eV     1   --> A_1  G_1 D_1   
     e(  2 -  2) =    -17.62059  eV     1   --> A_1  G_1 D_1   
     e(  3 -  4) =     -6.20853  eV     2   --> E    G_5 D_5   
     e(  5 -  6) =     -3.65759  eV     2   --> E    G_5 D_5   
     e(  7 -  7) =      3.57343  eV     1   --> A_1  G_1 D_1   
     e(  8 -  8) =      4.47430  eV     1   --> A_1  G_1 D_1   

 **************************************************************************

 **************************************************************************

                    xk=(   0.00000,   0.00000,   3.46845  )

     Band symmetry, C_4v (4mm)  point group:

     e(  1 -  1) =    -18.87554  eV     1   --> A_1  G_1 D_1   
     e(  2 -  2) =    -17.67528  eV     1   --> A_1  G_1 D_1   
     e(  3 -  4) =     -6.11781  eV     2   --> E    G_5 D_5   
     e(  5 -  6) =     -3.76967  eV     2   --> E    G_5 D_5   
     e(  7 -  7) =      3.66057  eV     1   --> A_1  G_1 D_1   
     e(  8 -  8) =      4.57434  eV     1   --> A_1  G_1 D_1   

 **************************************************************************

 **************************************************************************

                    xk=(   0.00000,   0.00000,   3.50742  )

     Band symmetry, C_4v (4mm)  point group:

     e(  1 -  1) =    -18.82694  eV     1   --> A_1  G_1 D_1   
     e(  2 -  2) =    -17.72957  eV     1   --> A_1  G_1 D_1   
     e(  3 -  4) =     -6.02658  eV     2   --> E    G_5 D_5   
     e(  5 -  6) =     -3.88041  eV     2   --> E    G_5 D_5   
     e(  7 -  7) =      3.74812  eV     1   --> A_1  G_1 D_1   
     e(  8 -  8) =      4.67546  eV     1   --> A_1  G_1 D_1   

 **************************************************************************

 **************************************************************************

                    xk=(   0.00000,   0.00000,   3.54640  )

     Band symmetry, C_4v (4mm)  point group:

     e(  1 -  1) =    -18.77828  eV     1   --> A_1  G_1 D_1   
     e(  2 -  2) =    -17.78340  eV     1   --> A_1  G_1 D_1   
     e(  3 -  4) =     -5.93498  eV     2   --> E    G_5 D_5   
     e(  5 -  6) =     -3.98969  eV     2   --> E    G_5 D_5   
     e(  7 -  7) =      3.83600  eV     1   --> A_1  G_1 D_1   
     e(  8 -  8) =      4.77764  eV     1   --> A_1  G_1 D_1   

 **************************************************************************

 **************************************************************************

                    xk=(   0.00000,   0.00000,   3.58537  )

     Band symmetry, C_4v (4mm)  point group:

     e(  1 -  1) =    -18.72969  eV     1   --> A_1  G_1 D_1   
     e(  2 -  2) =    -17.83663  eV     1   --> A_1  G_1 D_1   
     e(  3 -  4) =     -5.84322  eV     2   --> E    G_5 D_5   
     e(  5 -  6) =     -4.09726  eV     2   --> E    G_5 D_5   
     e(  7 -  7) =      3.92413  eV     1   --> A_1  G_1 D_1   
     e(  8 -  8) =      4.88080  eV     1   --> A_1  G_1 D_1   

 **************************************************************************

 **************************************************************************

                    xk=(   0.00000,   0.00000,   3.62434  )

     Band symmetry, C_4v (4mm)  point group:

     e(  1 -  1) =    -18.68131  eV     1   --> A_1  G_1 D_1   
     e(  2 -  2) =    -17.88910  eV     1   --> A_1  G_1 D_1   
     e(  3 -  4) =     -5.75162  eV     2   --> E    G_5 D_5   
     e(  5 -  6) =     -4.20282  eV     2   --> E    G_5 D_5   
     e(  7 -  7) =      4.01241  eV     1   --> A_1  G_1 D_1   
     e(  8 -  8) =      4.98466  eV     1   --> A_1  G_1 D_1   

 **************************************************************************

 **************************************************************************

                    xk=(   0.00000,   0.00000,   3.66331  )

     Band symmetry, C_4v (4mm)  point group:

     e(  1 -  1) =    -18.63342  eV     1   --> A_1  G_1 D_1   
     e(  2 -  2) =    -17.94055  eV     1   --> A_1  G_1 D_1   
     e(  3 -  4) =     -5.66069  eV     2   --> E    G_5 D_5   
     e(  5 -  6) =     -4.30586  eV     2   --> E    G_5 D_5   
     e(  7 -  7) =      4.10068  eV     1   --> A_1  G_1 D_1   
     e(  8 -  8) =      5.08666  eV     1   --> A_1  G_1 D_1   

 **************************************************************************

 **************************************************************************

                    xk=(   0.00000,   0.00000,   3.70228  )

     Band symmetry, C_4v (4mm)  point group:

     e(  1 -  1) =    -18.58642  eV     1   --> A_1  G_1 D_1   
     e(  2 -  2) =    -17.99055  eV     1   --> A_1  G_1 D_1   
     e(  3 -  4) =     -5.57124  eV     2   --> E    G_5 D_5   
     e(  5 -  6) =     -4.40556  eV     2   --> E    G_5 D_5   
     e(  7 -  7) =      4.18874  eV     1   --> A_1  G_1 D_1   
     e(  8 -  8) =      5.08587  eV     1   --> A_1  G_1 D_1   

 **************************************************************************

 **************************************************************************

                    xk=(   0.00000,   0.00000,   3.74125  )

     Band symmetry, C_4v (4mm)  point group:

     e(  1 -  1) =    -18.54105  eV     1   --> A_1  G_1 D_1   
     e(  2 -  2) =    -18.03839  eV     1   --> A_1  G_1 D_1   
     e(  3 -  4) =     -5.48469  eV     2   --> E    G_5 D_5   
     e(  5 -  6) =     -4.50050  eV     2   --> E    G_5 D_5   
     e(  7 -  7) =      4.27623  eV     1   --> A_1  G_1 D_1   
     e(  8 -  8) =      5.00496  eV     1   --> A_1  G_1 D_1   

 **************************************************************************

 **************************************************************************

                    xk=(   0.00000,   0.00000,   3.78022  )

     Band symmetry, C_4v (4mm)  point group:

     e(  1 -  1) =    -18.49862  eV     1   --> A_1  G_1 D_1   
     e(  2 -  2) =    -18.08275  eV     1   --> A_1  G_1 D_1   
     e(  3 -  4) =     -5.40361  eV     2   --> E    G_5 D_5   
     e(  5 -  6) =     -4.58810  eV     2   --> E    G_5 D_5   
     e(  7 -  7) =      4.36243  eV     1   --> A_1  G_1 D_1   
     e(  8 -  8) =      4.92229  eV     1   --> A_1  G_1 D_1   

 **************************************************************************

 **************************************************************************

                    xk=(   0.00000,   0.00000,   3.81920  )

     Band symmetry, C_4v (4mm)  point group:

     e(  1 -  1) =    -18.46164  eV     1   --> A_1  G_1 D_1   
     e(  2 -  2) =    -18.12110  eV     1   --> A_1  G_1 D_1   
     e(  3 -  4) =     -5.33292  eV     2   --> E    G_5 D_5   
     e(  5 -  6) =     -4.66346  eV     2   --> E    G_5 D_5   
     e(  7 -  7) =      4.44556  eV     1   --> A_1  G_1 D_1   
     e(  8 -  8) =      4.84144  eV     1   --> A_1  G_1 D_1   

 **************************************************************************

 **************************************************************************

                    xk=(   0.00000,   0.00000,   3.85817  )

     Band symmetry, C_4v (4mm)  point group:

     e(  1 -  1) =    -18.43475  eV     1   --> A_1  G_1 D_1   
     e(  2 -  2) =    -18.14881  eV     1   --> A_1  G_1 D_1   
     e(  3 -  4) =     -5.28156  eV     2   --> E    G_5 D_5   
     e(  5 -  6) =     -4.71761  eV     2   --> E    G_5 D_5   
     e(  7 -  7) =      4.51941  eV     1   --> A_1  G_1 D_1   
     e(  8 -  8) =      4.76889  eV     1   --> A_1  G_1 D_1   

 **************************************************************************

 **************************************************************************

                    xk=(   0.00000,   0.00000,   3.89714  )

     Band symmetry, C_4v (4mm)  point group:

     e(  1 -  1) =    -18.42454  eV     1   --> A_1  G_1 D_1   
     e(  2 -  2) =    -18.15929  eV     1   --> A_1  G_1 D_1   
     e(  3 -  4) =     -5.26209  eV     2   --> E    G_5 D_5   
     e(  5 -  6) =     -4.73801  eV     2   --> E    G_5 D_5   
     e(  7 -  7) =      4.55678  eV     1   --> A_1  G_1 D_1   
     e(  8 -  8) =      4.73194  eV     1   --> A_1  G_1 D_1   

 **************************************************************************
 
     BANDS        :   1m15.45s CPU   1m17.76s WALL

 
   This run was terminated on:  16:21:56  13Jun2021            

=------------------------------------------------------------------------------=
   JOB DONE.
=------------------------------------------------------------------------------=
