                                                                                      
                                       ``:oss/                                        
                           `.+s+.     .+ys--yh+     `./ss+.                           
                          -sh//yy+`   +yy   +yy    -+h+-oyy                           
                          -yh- .oyy/.-sh.   .syo-.:sy-  /yh                           
                 `.-.`    `yh+   -oyyyo.     `/syys:    oys      `.`                  
               `/+ssys+-` `sh+      `                   oys`   .:osyo`                
               -yh- ./syyooyo`                          .sys+/oyo--yh/                
               `yy+    .-:-.                             `-/+/:`  -sh-                
                /yh.                                              oys                 
          ``..---hho---------`   .---------..`      `.-----.`    -hd+---.             
       `./osmNMMMMMMMMMMMMMMMs. +NNMMMMMMMMNNmh+.   yNMMMMMNm-  oNMMMMMNmo++:`        
       +sy--/sdMMMhyyyyyyyNMMh- .oyNMMmyyyyyhNMMm+` -yMMMdyyo:` .oyyNMMNhs+syy`       
       -yy/   /MMM+.`-+/``mMMy-   `mMMh:`````.dMMN:` `MMMy-`-dhhy```mMMy:``+hs        
        -yy+` /MMMo:-mMM+`-oo/.    mMMh:     `dMMN/`  dMMm:`dMMMMy..MMMo-.+yo`        
         .sys`/MMMMNNMMMs-         mMMmyooooymMMNo:   oMMM/sMMMMMM++MMN//oh:          
          `sh+/MMMhyyMMMs- `-`     mMMMMMMMMMNmy+-`   -MMMhMMMsmMMmdMMd/yy+           
    `-/+++oyy-/MMM+.`/hh/.`mNm:`   mMMd+/////:-.`      NMMMMMd/:NMMMMMy:/yyo/:.`      
   +os+//:-..-oMMMo:--:::-/MMMo. .-mMMd+---`           hMMMMN+. oMMMMMo. `-+osyso:`   
   syo     `mNMMMMMNNNNNNNNMMMo.oNNMMMMMNNNN:`         +MMMMs:`  dMMMN/`     ``:syo   
   /yh`     :syyyyyyyyyyyyyyyy+.`+syyyyyyyyo:`         .oyys:`   .oyys:`        +yh   
   -yh-        ````````````````    `````````              ``        ``          oys   
   -+h/------------------------::::::::://////++++++++++++++++++++++///////::::/yd:   
   shdddddddddddddddddddddddddddddhhhhhhhhyyyyyssssssssssssssssyyyyyyyhhhhhhhddddh`   
                                                                                      
  S. Ponce, E. R. Margine, C. Verdi, and F. Giustino,                                 
                                                Comput. Phys. Commun. 209, 116 (2016) 
                                                                                      

     Program EPW v.5.3.1 starts on 28Apr2021 at 10:26:26 

     This program is part of the open-source Quantum ESPRESSO suite
     for quantum simulation of materials; please cite
         "P. Giannozzi et al., J. Phys.:Condens. Matter 21 395502 (2009);
         "P. Giannozzi et al., J. Phys.:Condens. Matter 29 465901 (2017);
          URL http://www.quantum-espresso.org", 
     in publications or presentations arising from this work. More details at
     http://www.quantum-espresso.org/quote

     Parallel version (MPI & OpenMP), running on      56 processor cores
     Number of MPI processes:                28
     Threads/MPI process:                     2

     MPI processes distributed on     1 nodes
     K-points division:     npool     =      28
     Waiting for input...
     Reading input from standard input

     Reading supplied temperature list.

     Reading xml data from directory:

     ./outdir/carbyne.save/
     file C.pbe-n-kjpaw_psl.1.0.0.UPF: wavefunction(s)  2S 2P renormalized

     IMPORTANT: XC functional enforced from input :
     Exchange-correlation= PBE
                           (   1   4   3   4   0   0   0)
     Any further DFT definition will be discarded
     Please, verify this is what you really want

 
     G-vector sticks info
     --------------------
     sticks:   dense  smooth     PW     G-vecs:    dense   smooth      PW
     Sum       56853   22733   7817              1308551   330561   67189
 

     negative rho (up, down):  5.456E-04 0.000E+00
     Message from routine divide_et_impera:
     suboptimal parallelization: some nodes have no k-points
     Reading collected, re-writing distributed wavefunctions

     epw calculation of carbyne                                                 

     bravais-lattice index     =            0
     lattice parameter (a_0)   =      37.7945  a.u.
     unit-cell volume          =    6931.1604 (a.u.)^3
     number of atoms/cell      =            2
     number of atomic types    =            1
     kinetic-energy cut-off    =      50.0000  Ry
     charge density cut-off    =     500.0000  Ry
     Exchange-correlation= PBE
                           (   1   4   3   4   0   0   0)


     celldm(1)=   37.79452  celldm(2)=    0.00000  celldm(3)=    0.00000
     celldm(4)=    0.00000  celldm(5)=    0.00000  celldm(6)=    0.00000

     crystal axes: (cart. coord. in units of a_0)
               a(1) = (  1.0000  0.0000  0.0000 )  
               a(2) = (  0.0000  1.0000  0.0000 )  
               a(3) = (  0.0000  0.0000  0.1284 )  

     reciprocal axes: (cart. coord. in units 2 pi/a_0)
               b(1) = (  1.0000  0.0000  0.0000 )  
               b(2) = (  0.0000  1.0000  0.0000 )  
               b(3) = (  0.0000  0.0000  7.7890 )  


     Atoms inside the unit cell: 

   Cartesian axes

     site n.  atom      mass           positions (a_0 units)
        1        C   12.0107   tau( 1) = (    0.50000    0.50000    0.00000  )
        2        C   12.0107   tau( 2) = (    0.50000    0.50000    0.06272  )
 
      9 Sym.Ops. (with q -> -q+G )


     G cutoff =18091.2258  (1308551 G-vectors)     FFT grid: (270,270, 36)
     G cutoff = 7236.4903  ( 330561 G-vectors)  smooth grid: (180,180,180)
     number of k points=   20
                       cart. coord. in units 2pi/a_0
        k(    1) = (   0.0000000   0.0000000   0.0000000), wk =   0.1000000
        k(    2) = (   0.0000000   0.0000000   0.3894490), wk =   0.1000000
        k(    3) = (   0.0000000   0.0000000   0.7788981), wk =   0.1000000
        k(    4) = (   0.0000000   0.0000000   1.1683471), wk =   0.1000000
        k(    5) = (   0.0000000   0.0000000   1.5577962), wk =   0.1000000
        k(    6) = (   0.0000000   0.0000000   1.9472452), wk =   0.1000000
        k(    7) = (   0.0000000   0.0000000   2.3366943), wk =   0.1000000
        k(    8) = (   0.0000000   0.0000000   2.7261433), wk =   0.1000000
        k(    9) = (   0.0000000   0.0000000   3.1155924), wk =   0.1000000
        k(   10) = (   0.0000000   0.0000000   3.5050414), wk =   0.1000000
        k(   11) = (   0.0000000   0.0000000   3.8944905), wk =   0.1000000
        k(   12) = (   0.0000000   0.0000000   4.2839395), wk =   0.1000000
        k(   13) = (   0.0000000   0.0000000   4.6733886), wk =   0.1000000
        k(   14) = (   0.0000000   0.0000000   5.0628376), wk =   0.1000000
        k(   15) = (   0.0000000   0.0000000   5.4522867), wk =   0.1000000
        k(   16) = (   0.0000000   0.0000000   5.8417357), wk =   0.1000000
        k(   17) = (   0.0000000   0.0000000   6.2311847), wk =   0.1000000
        k(   18) = (   0.0000000   0.0000000   6.6206338), wk =   0.1000000
        k(   19) = (   0.0000000   0.0000000   7.0100828), wk =   0.1000000
        k(   20) = (   0.0000000   0.0000000   7.3995319), wk =   0.1000000

     PseudoPot. # 1 for C  read from file:
     ../pseudopot/C.pbe-n-kjpaw_psl.1.0.0.UPF
     MD5 check sum: 6fec8efd722f5d988670a8dc528584a2
     Pseudo is Projector augmented-wave + core cor, Zval =  4.0
     Generated using "atomic" code by A. Dal Corso  v.5.1.2
     Shape of augmentation charge: PSQ
     Using radial grid of 1073 points,  4 beta functions with: 
                l(1) =   0
                l(2) =   0
                l(3) =   1
                l(4) =   1
     Q(r) pseudized with 0 coefficients 

     EPW          :      7.60s CPU      8.55s WALL

     EPW          :     21.96s CPU     22.94s WALL

     -------------------------------------------------------------------
     Wannierization on  1 x  1 x 20 electronic grid
     -------------------------------------------------------------------
 
     Spin CASE ( default = unpolarized )
 
     Initializing Wannier90
 
 
     Initial Wannier projections
 
     (   0.50000   0.50000   0.00000) :  l =   1 mr =   2
     (   0.50000   0.50000   0.48854) :  l =   1 mr =   2
     (   0.50000   0.50000   0.00000) :  l =   1 mr =   3
     (   0.50000   0.50000   0.48854) :  l =   1 mr =   3
     (   0.50000   0.50000   0.25000) :  l =   0 mr =   1
     (   0.50000   0.50000   0.75000) :  l =   0 mr =   1

      - Number of bands is (  8)
      - Number of total bands is (  8)
      - Number of excluded bands is (  0)
      - Number of wannier functions is (  6)
      - All guiding functions are given 
 
  Reading data about k-point neighbours 
 
      - All neighbours are found 
 
     AMN
      k points =    20 in   28 pools
            1 of    1 on ionode
 
     AMN calculated
 
     MMN
      k points =    20 in   28 pools
            1 of    1 on ionode
     MMN calculated
 
     Running Wannier90
 
     Wannier Function centers (cartesian, alat) and spreads (ang):
 
     (  -0.48214   0.49884   0.03136) :   0.86538
     (   0.49989  -0.50000   0.09555) :  15.44235
     (  -0.49847  -0.47822  -0.03283) :   3.19816
     (   0.49942   0.49325   0.03136) :   7.02582
     (   0.48214  -0.49869   0.03136) :   0.86550
     (   0.49909   0.48724   0.09555) :   1.50420
 
     -------------------------------------------------------------------
     WANNIER      :     10.76s CPU     11.65s WALL (       1 calls)
     -------------------------------------------------------------------

     Calculating kgmap

     Progress kgmap: ########################################
     kmaps        :      0.98s CPU      9.54s WALL (       1 calls)
     Symmetries of Bravais lattice:  16
     Symmetries of crystal:           8


     ===================================================================
     irreducible q point #    1
     ===================================================================

     Symmetries of small group of q:  8
          in addition sym. q -> -q+G:
 
     Number of q in the star =    1
     List of q in the star:
          1   0.000000000   0.000000000   0.000000000
     Imposing acoustic sum rule on the dynamical matrix
     Read dielectric tensor and effective charges
 
        q(    1 ) = (   0.0000000   0.0000000   0.0000000 )


     ===================================================================
     irreducible q point #    2
     ===================================================================

     Symmetries of small group of q:  8
 
     Number of q in the star =    1
     List of q in the star:
          1   0.000000000   0.000000000   0.778898093
     In addition there is the -q list: 
          1   0.000000000   0.000000000  -0.778898093
 
        q(    2 ) = (   0.0000000   0.0000000   0.7788981 )
 
        q(    3 ) = (   0.0000000   0.0000000  -0.7788981 )


     ===================================================================
     irreducible q point #    3
     ===================================================================

     Symmetries of small group of q:  8
 
     Number of q in the star =    1
     List of q in the star:
          1   0.000000000   0.000000000   1.557796186
     In addition there is the -q list: 
          1   0.000000000   0.000000000  -1.557796186
 
        q(    4 ) = (   0.0000000   0.0000000   1.5577962 )
 
        q(    5 ) = (   0.0000000   0.0000000  -1.5577962 )


     ===================================================================
     irreducible q point #    4
     ===================================================================

     Symmetries of small group of q:  8
 
     Number of q in the star =    1
     List of q in the star:
          1   0.000000000   0.000000000   2.336694279
     In addition there is the -q list: 
          1   0.000000000   0.000000000  -2.336694279
 
        q(    6 ) = (   0.0000000   0.0000000   2.3366943 )
 
        q(    7 ) = (   0.0000000   0.0000000  -2.3366943 )


     ===================================================================
     irreducible q point #    5
     ===================================================================

     Symmetries of small group of q:  8
 
     Number of q in the star =    1
     List of q in the star:
          1   0.000000000   0.000000000   3.115592371
     In addition there is the -q list: 
          1   0.000000000   0.000000000  -3.115592371
 
        q(    8 ) = (   0.0000000   0.0000000   3.1155924 )
 
        q(    9 ) = (   0.0000000   0.0000000  -3.1155924 )


     ===================================================================
     irreducible q point #    6
     ===================================================================

     Symmetries of small group of q:  8
          in addition sym. q -> -q+G:
 
     Number of q in the star =    1
     List of q in the star:
          1   0.000000000   0.000000000  -3.894490464
 
        q(   10 ) = (   0.0000000   0.0000000  -3.8944905 )

     Writing epmatq on .epb files


     The .epb files have been correctly written


     Band disentanglement is used: nbndsub =    6
     Use zone-centred Wigner-Seitz cells 
     Number of WS vectors for electrons       21
     Number of WS vectors for phonons       11
     Number of WS vectors for electron-phonon       11
     Maximum number of cores for efficient parallelization       66
     Results may improve by using use_ws == .TRUE. 

     Velocity matrix elements calculated
 
 
     Bloch2wane:          1 /         10
     Bloch2wane:          2 /         10
     Bloch2wane:          3 /         10
     Bloch2wane:          4 /         10
     Bloch2wane:          5 /         10
     Bloch2wane:          6 /         10
     Bloch2wane:          7 /         10
     Bloch2wane:          8 /         10
     Bloch2wane:          9 /         10
     Bloch2wane:         10 /         10
 
     Bloch2wanp:          1 /          1

     Writing Hamiltonian, Dynamical matrix and EP vertex in Wann rep to file

     ===================================================================
     Memory usage:  VmHWM =      1555Mb
                   VmPeak =      5177Mb
     ===================================================================
     
     Using uniform q-mesh:    1   1  20
     Size of q point mesh for interpolation:         20
     Using uniform k-mesh:    1   1  20
     Size of k point mesh for interpolation:         40
     Max number of k points per pool:                2

     Fermi energy coarse grid =  -5.266042 eV

     Fermi energy is calculated from the fine k-mesh: Ef =  -5.181854 eV

     ===================================================================

              ibndmin =     3  ebndmin =   -10.098 eV
              ibndmax =     6  ebndmax =    -0.292 eV


     Number of ep-matrix elements per pool :           96 ~=    0.75 Kb (@ 8 bytes/ DP)
     We only need to compute       20 q-points
      
      Electron-phonon vertex |g| (meV)

     iq =       1 coord.:    0.0000000   0.0000000   0.0000000
     ik =       1 coord.:    0.0000000   0.0000000   0.0000000
      ibnd     jbnd     imode   enk[eV]    enk+q[eV]  omega(q)[meV]   |g|[meV]
     ------------------------------------------------------------------------------
        3        3        1    -10.3135    -10.3135        0.0000003212    0.2994914334E+03
        3        3        2    -10.3135    -10.3135        0.0000009314    0.2994914334E+03
        3        3        3    -10.3135    -10.3135        0.0000031678    0.2994914334E+03
        3        3        4    -10.3135    -10.3135       61.5365006679    0.4482966590E-06
        3        3        5    -10.3135    -10.3135       61.5365006679    0.4482966590E-06
        3        3        6    -10.3135    -10.3135      222.8786157098    0.1492203157E+02
        3        4        1    -10.3135    -10.3135        0.0000003212    0.2994914334E+03
        3        4        2    -10.3135    -10.3135        0.0000009314    0.2994914334E+03
        3        4        3    -10.3135    -10.3135        0.0000031678    0.2994914334E+03
        3        4        4    -10.3135    -10.3135       61.5365006679    0.4482966590E-06
        3        4        5    -10.3135    -10.3135       61.5365006679    0.4482966590E-06
        3        4        6    -10.3135    -10.3135      222.8786157098    0.1492203157E+02
        3        5        1    -10.3135     -0.5105        0.0000003212    0.9859047835E+06
        3        5        2    -10.3135     -0.5105        0.0000009314    0.9859047835E+06
        3        5        3    -10.3135     -0.5105        0.0000031678    0.9859047835E+06
        3        5        4    -10.3135     -0.5105       61.5365006679    0.7805694916E-02
        3        5        5    -10.3135     -0.5105       61.5365006679    0.7805694916E-02
        3        5        6    -10.3135     -0.5105      222.8786157098    0.3867901417E-02
        3        6        1    -10.3135      0.1865        0.0000003212    0.1501154763E+03
        3        6        2    -10.3135      0.1865        0.0000009314    0.1501154763E+03
        3        6        3    -10.3135      0.1865        0.0000031678    0.1501154763E+03
        3        6        4    -10.3135      0.1865       61.5365006679    0.2713998435E-04
        3        6        5    -10.3135      0.1865       61.5365006679    0.2713998435E-04
        3        6        6    -10.3135      0.1865      222.8786157098    0.2121232635E+00
        4        3        1    -10.3135    -10.3135        0.0000003212    0.2994914334E+03
        4        3        2    -10.3135    -10.3135        0.0000009314    0.2994914334E+03
        4        3        3    -10.3135    -10.3135        0.0000031678    0.2994914334E+03
        4        3        4    -10.3135    -10.3135       61.5365006679    0.4482966590E-06
        4        3        5    -10.3135    -10.3135       61.5365006679    0.4482966590E-06
        4        3        6    -10.3135    -10.3135      222.8786157098    0.1492203157E+02
        4        4        1    -10.3135    -10.3135        0.0000003212    0.2994914334E+03
        4        4        2    -10.3135    -10.3135        0.0000009314    0.2994914334E+03
        4        4        3    -10.3135    -10.3135        0.0000031678    0.2994914334E+03
        4        4        4    -10.3135    -10.3135       61.5365006679    0.4482966590E-06
        4        4        5    -10.3135    -10.3135       61.5365006679    0.4482966590E-06
        4        4        6    -10.3135    -10.3135      222.8786157098    0.1492203157E+02
        4        5        1    -10.3135     -0.5105        0.0000003212    0.9859047835E+06
        4        5        2    -10.3135     -0.5105        0.0000009314    0.9859047835E+06
        4        5        3    -10.3135     -0.5105        0.0000031678    0.9859047835E+06
        4        5        4    -10.3135     -0.5105       61.5365006679    0.7805694916E-02
        4        5        5    -10.3135     -0.5105       61.5365006679    0.7805694916E-02
        4        5        6    -10.3135     -0.5105      222.8786157098    0.3867901417E-02
        4        6        1    -10.3135      0.1865        0.0000003212    0.1501154763E+03
        4        6        2    -10.3135      0.1865        0.0000009314    0.1501154763E+03
        4        6        3    -10.3135      0.1865        0.0000031678    0.1501154763E+03
        4        6        4    -10.3135      0.1865       61.5365006679    0.2713998435E-04
        4        6        5    -10.3135      0.1865       61.5365006679    0.2713998435E-04
        4        6        6    -10.3135      0.1865      222.8786157098    0.2121232635E+00
        5        3        1     -0.5105    -10.3135        0.0000003212    0.1138540556E+07
        5        3        2     -0.5105    -10.3135        0.0000009314    0.1138540556E+07
        5        3        3     -0.5105    -10.3135        0.0000031678    0.1138540556E+07
        5        3        4     -0.5105    -10.3135       61.5365006679    0.7726350725E-02
        5        3        5     -0.5105    -10.3135       61.5365006679    0.7726350725E-02
        5        3        6     -0.5105    -10.3135      222.8786157098    0.3045795730E-02
        5        4        1     -0.5105    -10.3135        0.0000003212    0.1138540556E+07
        5        4        2     -0.5105    -10.3135        0.0000009314    0.1138540556E+07
        5        4        3     -0.5105    -10.3135        0.0000031678    0.1138540556E+07
        5        4        4     -0.5105    -10.3135       61.5365006679    0.7726350725E-02
        5        4        5     -0.5105    -10.3135       61.5365006679    0.7726350725E-02
        5        4        6     -0.5105    -10.3135      222.8786157098    0.3045795730E-02
        5        5        1     -0.5105     -0.5105        0.0000003212    0.4044780152E+04
        5        5        2     -0.5105     -0.5105        0.0000009314    0.4044780152E+04
        5        5        3     -0.5105     -0.5105        0.0000031678    0.4044780152E+04
        5        5        4     -0.5105     -0.5105       61.5365006679    0.3011163054E-01
        5        5        5     -0.5105     -0.5105       61.5365006679    0.3011163054E-01
        5        5        6     -0.5105     -0.5105      222.8786157098    0.5691142802E+01
        5        6        1     -0.5105      0.1865        0.0000003212    0.2313703470E+05
        5        6        2     -0.5105      0.1865        0.0000009314    0.2313703470E+05
        5        6        3     -0.5105      0.1865        0.0000031678    0.2313703470E+05
        5        6        4     -0.5105      0.1865       61.5365006679    0.8255957334E+00
        5        6        5     -0.5105      0.1865       61.5365006679    0.8255957334E+00
        5        6        6     -0.5105      0.1865      222.8786157098    0.2796796582E-03
        6        3        1      0.1865    -10.3135        0.0000003212    0.1546255395E+03
        6        3        2      0.1865    -10.3135        0.0000009314    0.1546255395E+03
        6        3        3      0.1865    -10.3135        0.0000031678    0.1546255395E+03
        6        3        4      0.1865    -10.3135       61.5365006679    0.6709635132E-05
        6        3        5      0.1865    -10.3135       61.5365006679    0.6709635132E-05
        6        3        6      0.1865    -10.3135      222.8786157098    0.1670385553E+00
        6        4        1      0.1865    -10.3135        0.0000003212    0.1546255395E+03
        6        4        2      0.1865    -10.3135        0.0000009314    0.1546255395E+03
        6        4        3      0.1865    -10.3135        0.0000031678    0.1546255395E+03
        6        4        4      0.1865    -10.3135       61.5365006679    0.6709635132E-05
        6        4        5      0.1865    -10.3135       61.5365006679    0.6709635132E-05
        6        4        6      0.1865    -10.3135      222.8786157098    0.1670385553E+00
        6        5        1      0.1865     -0.5105        0.0000003212    0.2199867368E+05
        6        5        2      0.1865     -0.5105        0.0000009314    0.2199867368E+05
        6        5        3      0.1865     -0.5105        0.0000031678    0.2199867368E+05
        6        5        4      0.1865     -0.5105       61.5365006679    0.8255944095E+00
        6        5        5      0.1865     -0.5105       61.5365006679    0.8255944095E+00
        6        5        6      0.1865     -0.5105      222.8786157098    0.2796009501E-03
        6        6        1      0.1865      0.1865        0.0000003212    0.3647780713E+04
        6        6        2      0.1865      0.1865        0.0000009314    0.3647780713E+04
        6        6        3      0.1865      0.1865        0.0000031678    0.3647780713E+04
        6        6        4      0.1865      0.1865       61.5365006679    0.7019999097E-04
        6        6        5      0.1865      0.1865       61.5365006679    0.7019999097E-04
        6        6        6      0.1865      0.1865      222.8786157098    0.1143680739E+01
     ------------------------------------------------------------------------------

     ik =       2 coord.:    0.0000000   0.0000000   0.0500000
      ibnd     jbnd     imode   enk[eV]    enk+q[eV]  omega(q)[meV]   |g|[meV]
     ------------------------------------------------------------------------------
        3        3        1    -10.2596    -10.2596        0.0000003212    0.2995679047E+03
        3        3        2    -10.2596    -10.2596        0.0000009314    0.2995679047E+03
        3        3        3    -10.2596    -10.2596        0.0000031678    0.2995679047E+03
        3        3        4    -10.2596    -10.2596       61.5365006679    0.1877239854E-06
        3        3        5    -10.2596    -10.2596       61.5365006679    0.1877239854E-06
        3        3        6    -10.2596    -10.2596      222.8786157098    0.1478732169E+02
        3        4        1    -10.2596    -10.2596        0.0000003212    0.2995679047E+03
        3        4        2    -10.2596    -10.2596        0.0000009314    0.2995679047E+03
        3        4        3    -10.2596    -10.2596        0.0000031678    0.2995679047E+03
        3        4        4    -10.2596    -10.2596       61.5365006679    0.1877239854E-06
        3        4        5    -10.2596    -10.2596       61.5365006679    0.1877239854E-06
        3        4        6    -10.2596    -10.2596      222.8786157098    0.1478732169E+02
        3        5        1    -10.2596     -0.4560        0.0000003212    0.9877047805E+06
        3        5        2    -10.2596     -0.4560        0.0000009314    0.9877047805E+06
        3        5        3    -10.2596     -0.4560        0.0000031678    0.9877047805E+06
        3        5        4    -10.2596     -0.4560       61.5365006679    0.1117936979E+00
        3        5        5    -10.2596     -0.4560       61.5365006679    0.1117936979E+00
        3        5        6    -10.2596     -0.4560      222.8786157098    0.2673234230E-02
        3        6        1    -10.2596      0.2434        0.0000003212    0.9824425711E+03
        3        6        2    -10.2596      0.2434        0.0000009314    0.9824425711E+03
        3        6        3    -10.2596      0.2434        0.0000031678    0.9824425711E+03
        3        6        4    -10.2596      0.2434       61.5365006679    0.5382361331E-05
        3        6        5    -10.2596      0.2434       61.5365006679    0.5382361331E-05
        3        6        6    -10.2596      0.2434      222.8786157098    0.1387401677E+00
        4        3        1    -10.2596    -10.2596        0.0000003212    0.2995679047E+03
        4        3        2    -10.2596    -10.2596        0.0000009314    0.2995679047E+03
        4        3        3    -10.2596    -10.2596        0.0000031678    0.2995679047E+03
        4        3        4    -10.2596    -10.2596       61.5365006679    0.1877239854E-06
        4        3        5    -10.2596    -10.2596       61.5365006679    0.1877239854E-06
        4        3        6    -10.2596    -10.2596      222.8786157098    0.1478732169E+02
        4        4        1    -10.2596    -10.2596        0.0000003212    0.2995679047E+03
        4        4        2    -10.2596    -10.2596        0.0000009314    0.2995679047E+03
        4        4        3    -10.2596    -10.2596        0.0000031678    0.2995679047E+03
        4        4        4    -10.2596    -10.2596       61.5365006679    0.1877239854E-06
        4        4        5    -10.2596    -10.2596       61.5365006679    0.1877239854E-06
        4        4        6    -10.2596    -10.2596      222.8786157098    0.1478732169E+02
        4        5        1    -10.2596     -0.4560        0.0000003212    0.9877047805E+06
        4        5        2    -10.2596     -0.4560        0.0000009314    0.9877047805E+06
        4        5        3    -10.2596     -0.4560        0.0000031678    0.9877047805E+06
        4        5        4    -10.2596     -0.4560       61.5365006679    0.1117936979E+00
        4        5        5    -10.2596     -0.4560       61.5365006679    0.1117936979E+00
        4        5        6    -10.2596     -0.4560      222.8786157098    0.2673234230E-02
        4        6        1    -10.2596      0.2434        0.0000003212    0.9824425711E+03
        4        6        2    -10.2596      0.2434        0.0000009314    0.9824425711E+03
        4        6        3    -10.2596      0.2434        0.0000031678    0.9824425711E+03
        4        6        4    -10.2596      0.2434       61.5365006679    0.5382361331E-05
        4        6        5    -10.2596      0.2434       61.5365006679    0.5382361331E-05
        4        6        6    -10.2596      0.2434      222.8786157098    0.1387401677E+00
        5        3        1     -0.4560    -10.2596        0.0000003212    0.1140130574E+07
        5        3        2     -0.4560    -10.2596        0.0000009314    0.1140130574E+07
        5        3        3     -0.4560    -10.2596        0.0000031678    0.1140130574E+07
        5        3        4     -0.4560    -10.2596       61.5365006679    0.4035720243E+00
        5        3        5     -0.4560    -10.2596       61.5365006679    0.4035720243E+00
        5        3        6     -0.4560    -10.2596      222.8786157098    0.1779057494E-02
        5        4        1     -0.4560    -10.2596        0.0000003212    0.1140130574E+07
        5        4        2     -0.4560    -10.2596        0.0000009314    0.1140130574E+07
        5        4        3     -0.4560    -10.2596        0.0000031678    0.1140130574E+07
        5        4        4     -0.4560    -10.2596       61.5365006679    0.4035720243E+00
        5        4        5     -0.4560    -10.2596       61.5365006679    0.4035720243E+00
        5        4        6     -0.4560    -10.2596      222.8786157098    0.1779057494E-02
        5        5        1     -0.4560     -0.4560        0.0000003212    0.4094528337E+04
        5        5        2     -0.4560     -0.4560        0.0000009314    0.4094528337E+04
        5        5        3     -0.4560     -0.4560        0.0000031678    0.4094528337E+04
        5        5        4     -0.4560     -0.4560       61.5365006679    0.3179642920E-01
        5        5        5     -0.4560     -0.4560       61.5365006679    0.3179642920E-01
        5        5        6     -0.4560     -0.4560      222.8786157098    0.5606121129E+01
        5        6        1     -0.4560      0.2434        0.0000003212    0.2328890098E+05
        5        6        2     -0.4560      0.2434        0.0000009314    0.2328890098E+05
        5        6        3     -0.4560      0.2434        0.0000031678    0.2328890098E+05
        5        6        4     -0.4560      0.2434       61.5365006679    0.8763479470E+00
        5        6        5     -0.4560      0.2434       61.5365006679    0.8763479470E+00
        5        6        6     -0.4560      0.2434      222.8786157098    0.2909830399E-03
        6        3        1      0.2434    -10.2596        0.0000003212    0.9980366334E+03
        6        3        2      0.2434    -10.2596        0.0000009314    0.9980366334E+03
        6        3        3      0.2434    -10.2596        0.0000031678    0.9980366334E+03
        6        3        4      0.2434    -10.2596       61.5365006679    0.2042089034E-04
        6        3        5      0.2434    -10.2596       61.5365006679    0.2042089034E-04
        6        3        6      0.2434    -10.2596      222.8786157098    0.9233248956E-01
        6        4        1      0.2434    -10.2596        0.0000003212    0.9980366334E+03
        6        4        2      0.2434    -10.2596        0.0000009314    0.9980366334E+03
        6        4        3      0.2434    -10.2596        0.0000031678    0.9980366334E+03
        6        4        4      0.2434    -10.2596       61.5365006679    0.2042089034E-04
        6        4        5      0.2434    -10.2596       61.5365006679    0.2042089034E-04
        6        4        6      0.2434    -10.2596      222.8786157098    0.9233248956E-01
        6        5        1      0.2434     -0.4560        0.0000003212    0.2214783227E+05
        6        5        2      0.2434     -0.4560        0.0000009314    0.2214783227E+05
        6        5        3      0.2434     -0.4560        0.0000031678    0.2214783227E+05
        6        5        4      0.2434     -0.4560       61.5365006679    0.8778253779E+00
        6        5        5      0.2434     -0.4560       61.5365006679    0.8778253779E+00
        6        5        6      0.2434     -0.4560      222.8786157098    0.2909116796E-03
        6        6        1      0.2434      0.2434        0.0000003212    0.3647565457E+04
        6        6        2      0.2434      0.2434        0.0000009314    0.3647565457E+04
        6        6        3      0.2434      0.2434        0.0000031678    0.3647565457E+04
        6        6        4      0.2434      0.2434       61.5365006679    0.6708287105E-04
        6        6        5      0.2434      0.2434       61.5365006679    0.6708287105E-04
        6        6        6      0.2434      0.2434      222.8786157098    0.1121733088E+01
     ------------------------------------------------------------------------------

     ik =       3 coord.:    0.0000000   0.0000000   0.1000000
      ibnd     jbnd     imode   enk[eV]    enk+q[eV]  omega(q)[meV]   |g|[meV]
     ------------------------------------------------------------------------------
        3        3        1    -10.0983    -10.0983        0.0000003212    0.2998132442E+03
        3        3        2    -10.0983    -10.0983        0.0000009314    0.2998132442E+03
        3        3        3    -10.0983    -10.0983        0.0000031678    0.2998132442E+03
        3        3        4    -10.0983    -10.0983       61.5365006679    0.2186878972E-06
        3        3        5    -10.0983    -10.0983       61.5365006679    0.2186878972E-06
        3        3        6    -10.0983    -10.0983      222.8786157098    0.1436531948E+02
        3        4        1    -10.0983    -10.0983        0.0000003212    0.2998132442E+03
        3        4        2    -10.0983    -10.0983        0.0000009314    0.2998132442E+03
        3        4        3    -10.0983    -10.0983        0.0000031678    0.2998132442E+03
        3        4        4    -10.0983    -10.0983       61.5365006679    0.2186878972E-06
        3        4        5    -10.0983    -10.0983       61.5365006679    0.2186878972E-06
        3        4        6    -10.0983    -10.0983      222.8786157098    0.1436531948E+02
        3        5        1    -10.0983     -0.2925        0.0000003212    0.9932175624E+06
        3        5        2    -10.0983     -0.2925        0.0000009314    0.9932175624E+06
        3        5        3    -10.0983     -0.2925        0.0000031678    0.9932175624E+06
        3        5        4    -10.0983     -0.2925       61.5365006679    0.1560048874E+00
        3        5        5    -10.0983     -0.2925       61.5365006679    0.1560048874E+00
        3        5        6    -10.0983     -0.2925      222.8786157098    0.2787468943E-02
        3        6        1    -10.0983      0.4142        0.0000003212    0.1990328649E+04
        3        6        2    -10.0983      0.4142        0.0000009314    0.1990328649E+04
        3        6        3    -10.0983      0.4142        0.0000031678    0.1990328649E+04
        3        6        4    -10.0983      0.4142       61.5365006679    0.5166118888E-04
        3        6        5    -10.0983      0.4142       61.5365006679    0.5166118888E-04
        3        6        6    -10.0983      0.4142      222.8786157098    0.1239030471E+00
        4        3        1    -10.0983    -10.0983        0.0000003212    0.2998132442E+03
        4        3        2    -10.0983    -10.0983        0.0000009314    0.2998132442E+03
        4        3        3    -10.0983    -10.0983        0.0000031678    0.2998132442E+03
        4        3        4    -10.0983    -10.0983       61.5365006679    0.2186878972E-06
        4        3        5    -10.0983    -10.0983       61.5365006679    0.2186878972E-06
        4        3        6    -10.0983    -10.0983      222.8786157098    0.1436531948E+02
        4        4        1    -10.0983    -10.0983        0.0000003212    0.2998132442E+03
        4        4        2    -10.0983    -10.0983        0.0000009314    0.2998132442E+03
        4        4        3    -10.0983    -10.0983        0.0000031678    0.2998132442E+03
        4        4        4    -10.0983    -10.0983       61.5365006679    0.2186878972E-06
        4        4        5    -10.0983    -10.0983       61.5365006679    0.2186878972E-06
        4        4        6    -10.0983    -10.0983      222.8786157098    0.1436531948E+02
        4        5        1    -10.0983     -0.2925        0.0000003212    0.9932175624E+06
        4        5        2    -10.0983     -0.2925        0.0000009314    0.9932175624E+06
        4        5        3    -10.0983     -0.2925        0.0000031678    0.9932175624E+06
        4        5        4    -10.0983     -0.2925       61.5365006679    0.1560048874E+00
        4        5        5    -10.0983     -0.2925       61.5365006679    0.1560048874E+00
        4        5        6    -10.0983     -0.2925      222.8786157098    0.2787468943E-02
        4        6        1    -10.0983      0.4142        0.0000003212    0.1990328649E+04
        4        6        2    -10.0983      0.4142        0.0000009314    0.1990328649E+04
        4        6        3    -10.0983      0.4142        0.0000031678    0.1990328649E+04
        4        6        4    -10.0983      0.4142       61.5365006679    0.5166118888E-04
        4        6        5    -10.0983      0.4142       61.5365006679    0.5166118888E-04
        4        6        6    -10.0983      0.4142      222.8786157098    0.1239030471E+00
        5        3        1     -0.2925    -10.0983        0.0000003212    0.1144996848E+07
        5        3        2     -0.2925    -10.0983        0.0000009314    0.1144996848E+07
        5        3        3     -0.2925    -10.0983        0.0000031678    0.1144996848E+07
        5        3        4     -0.2925    -10.0983       61.5365006679    0.7172340798E+00
        5        3        5     -0.2925    -10.0983       61.5365006679    0.7172340798E+00
        5        3        6     -0.2925    -10.0983      222.8786157098    0.3944888565E-02
        5        4        1     -0.2925    -10.0983        0.0000003212    0.1144996848E+07
        5        4        2     -0.2925    -10.0983        0.0000009314    0.1144996848E+07
        5        4        3     -0.2925    -10.0983        0.0000031678    0.1144996848E+07
        5        4        4     -0.2925    -10.0983       61.5365006679    0.7172340798E+00
        5        4        5     -0.2925    -10.0983       61.5365006679    0.7172340798E+00
        5        4        6     -0.2925    -10.0983      222.8786157098    0.3944888565E-02
        5        5        1     -0.2925     -0.2925        0.0000003212    0.4261310600E+04
        5        5        2     -0.2925     -0.2925        0.0000009314    0.4261310600E+04
        5        5        3     -0.2925     -0.2925        0.0000031678    0.4261310600E+04
        5        5        4     -0.2925     -0.2925       61.5365006679    0.3701799622E-01
        5        5        5     -0.2925     -0.2925       61.5365006679    0.3701799622E-01
        5        5        6     -0.2925     -0.2925      222.8786157098    0.5356589357E+01
        5        6        1     -0.2925      0.4142        0.0000003212    0.2375281059E+05
        5        6        2     -0.2925      0.4142        0.0000009314    0.2375281059E+05
        5        6        3     -0.2925      0.4142        0.0000031678    0.2375281059E+05
        5        6        4     -0.2925      0.4142       61.5365006679    0.1049156093E+01
        5        6        5     -0.2925      0.4142       61.5365006679    0.1049156093E+01
        5        6        6     -0.2925      0.4142      222.8786157098    0.3143045627E-03
        6        3        1      0.4142    -10.0983        0.0000003212    0.2021642045E+04
        6        3        2      0.4142    -10.0983        0.0000009314    0.2021642045E+04
        6        3        3      0.4142    -10.0983        0.0000031678    0.2021642045E+04
        6        3        4      0.4142    -10.0983       61.5365006679    0.8013783953E-04
        6        3        5      0.4142    -10.0983       61.5365006679    0.8013783953E-04
        6        3        6      0.4142    -10.0983      222.8786157098    0.1753459923E+00
        6        4        1      0.4142    -10.0983        0.0000003212    0.2021642045E+04
        6        4        2      0.4142    -10.0983        0.0000009314    0.2021642045E+04
        6        4        3      0.4142    -10.0983        0.0000031678    0.2021642045E+04
        6        4        4      0.4142    -10.0983       61.5365006679    0.8013783953E-04
        6        4        5      0.4142    -10.0983       61.5365006679    0.8013783953E-04
        6        4        6      0.4142    -10.0983      222.8786157098    0.1753459923E+00
        6        5        1      0.4142     -0.2925        0.0000003212    0.2260371601E+05
        6        5        2      0.4142     -0.2925        0.0000009314    0.2260371601E+05
        6        5        3      0.4142     -0.2925        0.0000031678    0.2260371601E+05
        6        5        4      0.4142     -0.2925       61.5365006679    0.1054840737E+01
        6        5        5      0.4142     -0.2925       61.5365006679    0.1054840737E+01
        6        5        6      0.4142     -0.2925      222.8786157098    0.3142491491E-03
        6        6        1      0.4142      0.4142        0.0000003212    0.3646837190E+04
        6        6        2      0.4142      0.4142        0.0000009314    0.3646837190E+04
        6        6        3      0.4142      0.4142        0.0000031678    0.3646837190E+04
        6        6        4      0.4142      0.4142       61.5365006679    0.7654509438E-04
        6        6        5      0.4142      0.4142       61.5365006679    0.7654509438E-04
        6        6        6      0.4142      0.4142      222.8786157098    0.1041621351E+01
     ------------------------------------------------------------------------------

     ik =       4 coord.:    0.0000000   0.0000000   0.1500000
      ibnd     jbnd     imode   enk[eV]    enk+q[eV]  omega(q)[meV]   |g|[meV]
     ------------------------------------------------------------------------------
        3        3        1     -9.8297     -9.8297        0.0000003212    0.3002428271E+03
        3        3        2     -9.8297     -9.8297        0.0000009314    0.3002428271E+03
        3        3        3     -9.8297     -9.8297        0.0000031678    0.3002428271E+03
        3        3        4     -9.8297     -9.8297       61.5365006679    0.1174340866E-06
        3        3        5     -9.8297     -9.8297       61.5365006679    0.1174340866E-06
        3        3        6     -9.8297     -9.8297      222.8786157098    0.1359769435E+02
        3        4        1     -9.8297     -9.8297        0.0000003212    0.3002428271E+03
        3        4        2     -9.8297     -9.8297        0.0000009314    0.3002428271E+03
        3        4        3     -9.8297     -9.8297        0.0000031678    0.3002428271E+03
        3        4        4     -9.8297     -9.8297       61.5365006679    0.1174340866E-06
        3        4        5     -9.8297     -9.8297       61.5365006679    0.1174340866E-06
        3        4        6     -9.8297     -9.8297      222.8786157098    0.1359769435E+02
        3        5        1     -9.8297     -0.0203        0.0000003212    0.1002824186E+07
        3        5        2     -9.8297     -0.0203        0.0000009314    0.1002824186E+07
        3        5        3     -9.8297     -0.0203        0.0000031678    0.1002824186E+07
        3        5        4     -9.8297     -0.0203       61.5365006679    0.8164371534E-01
        3        5        5     -9.8297     -0.0203       61.5365006679    0.8164371534E-01
        3        5        6     -9.8297     -0.0203      222.8786157098    0.2252021652E-01
        3        6        1     -9.8297      0.6989        0.0000003212    0.3114048898E+04
        3        6        2     -9.8297      0.6989        0.0000009314    0.3114048898E+04
        3        6        3     -9.8297      0.6989        0.0000031678    0.3114048898E+04
        3        6        4     -9.8297      0.6989       61.5365006679    0.2640500957E-04
        3        6        5     -9.8297      0.6989       61.5365006679    0.2640500957E-04
        3        6        6     -9.8297      0.6989      222.8786157098    0.7943701467E+00
        4        3        1     -9.8297     -9.8297        0.0000003212    0.3002428271E+03
        4        3        2     -9.8297     -9.8297        0.0000009314    0.3002428271E+03
        4        3        3     -9.8297     -9.8297        0.0000031678    0.3002428271E+03
        4        3        4     -9.8297     -9.8297       61.5365006679    0.1174340866E-06
        4        3        5     -9.8297     -9.8297       61.5365006679    0.1174340866E-06
        4        3        6     -9.8297     -9.8297      222.8786157098    0.1359769435E+02
        4        4        1     -9.8297     -9.8297        0.0000003212    0.3002428271E+03
        4        4        2     -9.8297     -9.8297        0.0000009314    0.3002428271E+03
        4        4        3     -9.8297     -9.8297        0.0000031678    0.3002428271E+03
        4        4        4     -9.8297     -9.8297       61.5365006679    0.1174340866E-06
        4        4        5     -9.8297     -9.8297       61.5365006679    0.1174340866E-06
        4        4        6     -9.8297     -9.8297      222.8786157098    0.1359769435E+02
        4        5        1     -9.8297     -0.0203        0.0000003212    0.1002824186E+07
        4        5        2     -9.8297     -0.0203        0.0000009314    0.1002824186E+07
        4        5        3     -9.8297     -0.0203        0.0000031678    0.1002824186E+07
        4        5        4     -9.8297     -0.0203       61.5365006679    0.8164371534E-01
        4        5        5     -9.8297     -0.0203       61.5365006679    0.8164371534E-01
        4        5        6     -9.8297     -0.0203      222.8786157098    0.2252021652E-01
        4        6        1     -9.8297      0.6989        0.0000003212    0.3114048898E+04
        4        6        2     -9.8297      0.6989        0.0000009314    0.3114048898E+04
        4        6        3     -9.8297      0.6989        0.0000031678    0.3114048898E+04
        4        6        4     -9.8297      0.6989       61.5365006679    0.2640500957E-04
        4        6        5     -9.8297      0.6989       61.5365006679    0.2640500957E-04
        4        6        6     -9.8297      0.6989      222.8786157098    0.7943701467E+00
        5        3        1     -0.0203     -9.8297        0.0000003212    0.1153460717E+07
        5        3        2     -0.0203     -9.8297        0.0000009314    0.1153460717E+07
        5        3        3     -0.0203     -9.8297        0.0000031678    0.1153460717E+07
        5        3        4     -0.0203     -9.8297       61.5365006679    0.8770278373E+00
        5        3        5     -0.0203     -9.8297       61.5365006679    0.8770278373E+00
        5        3        6     -0.0203     -9.8297      222.8786157098    0.2434202724E-01
        5        4        1     -0.0203     -9.8297        0.0000003212    0.1153460717E+07
        5        4        2     -0.0203     -9.8297        0.0000009314    0.1153460717E+07
        5        4        3     -0.0203     -9.8297        0.0000031678    0.1153460717E+07
        5        4        4     -0.0203     -9.8297       61.5365006679    0.8770278373E+00
        5        4        5     -0.0203     -9.8297       61.5365006679    0.8770278373E+00
        5        4        6     -0.0203     -9.8297      222.8786157098    0.2434202724E-01
        5        5        1     -0.0203     -0.0203        0.0000003212    0.4604607002E+04
        5        5        2     -0.0203     -0.0203        0.0000009314    0.4604607002E+04
        5        5        3     -0.0203     -0.0203        0.0000031678    0.4604607002E+04
        5        5        4     -0.0203     -0.0203       61.5365006679    0.4643932622E-01
        5        5        5     -0.0203     -0.0203       61.5365006679    0.4643932622E-01
        5        5        6     -0.0203     -0.0203      222.8786157098    0.4949777960E+01
        5        6        1     -0.0203      0.6989        0.0000003212    0.2455284701E+05
        5        6        2     -0.0203      0.6989        0.0000009314    0.2455284701E+05
        5        6        3     -0.0203      0.6989        0.0000031678    0.2455284701E+05
        5        6        4     -0.0203      0.6989       61.5365006679    0.1490564191E+01
        5        6        5     -0.0203      0.6989       61.5365006679    0.1490564191E+01
        5        6        6     -0.0203      0.6989      222.8786157098    0.3387798109E-03
        6        3        1      0.6989     -9.8297        0.0000003212    0.3163812964E+04
        6        3        2      0.6989     -9.8297        0.0000009314    0.3163812964E+04
        6        3        3      0.6989     -9.8297        0.0000031678    0.3163812964E+04
        6        3        4      0.6989     -9.8297       61.5365006679    0.5877134797E-04
        6        3        5      0.6989     -9.8297       61.5365006679    0.5877134797E-04
        6        3        6      0.6989     -9.8297      222.8786157098    0.8586289815E+00
        6        4        1      0.6989     -9.8297        0.0000003212    0.3163812964E+04
        6        4        2      0.6989     -9.8297        0.0000009314    0.3163812964E+04
        6        4        3      0.6989     -9.8297        0.0000031678    0.3163812964E+04
        6        4        4      0.6989     -9.8297       61.5365006679    0.5877134797E-04
        6        4        5      0.6989     -9.8297       61.5365006679    0.5877134797E-04
        6        4        6      0.6989     -9.8297      222.8786157098    0.8586289815E+00
        6        5        1      0.6989     -0.0203        0.0000003212    0.2339092949E+05
        6        5        2      0.6989     -0.0203        0.0000009314    0.2339092949E+05
        6        5        3      0.6989     -0.0203        0.0000031678    0.2339092949E+05
        6        5        4      0.6989     -0.0203       61.5365006679    0.1503714387E+01
        6        5        5      0.6989     -0.0203       61.5365006679    0.1503714387E+01
        6        5        6      0.6989     -0.0203      222.8786157098    0.3388038355E-03
        6        6        1      0.6989      0.6989        0.0000003212    0.3645655534E+04
        6        6        2      0.6989      0.6989        0.0000009314    0.3645655534E+04
        6        6        3      0.6989      0.6989        0.0000031678    0.3645655534E+04
        6        6        4      0.6989      0.6989       61.5365006679    0.9265334883E-04
        6        6        5      0.6989      0.6989       61.5365006679    0.9265334883E-04
        6        6        6      0.6989      0.6989      222.8786157098    0.8298938907E+00
     ------------------------------------------------------------------------------

     ik =       5 coord.:    0.0000000   0.0000000   0.2000000
      ibnd     jbnd     imode   enk[eV]    enk+q[eV]  omega(q)[meV]   |g|[meV]
     ------------------------------------------------------------------------------
        3        3        1     -9.4542     -9.4542        0.0000003212    0.3008801972E+03
        3        3        2     -9.4542     -9.4542        0.0000009314    0.3008801972E+03
        3        3        3     -9.4542     -9.4542        0.0000031678    0.3008801972E+03
        3        3        4     -9.4542     -9.4542       61.5365006679    0.1717649876E-06
        3        3        5     -9.4542     -9.4542       61.5365006679    0.1717649876E-06
        3        3        6     -9.4542     -9.4542      222.8786157098    0.1236393837E+02
        3        4        1     -9.4542     -9.4542        0.0000003212    0.3008801972E+03
        3        4        2     -9.4542     -9.4542        0.0000009314    0.3008801972E+03
        3        4        3     -9.4542     -9.4542        0.0000031678    0.3008801972E+03
        3        4        4     -9.4542     -9.4542       61.5365006679    0.1717649876E-06
        3        4        5     -9.4542     -9.4542       61.5365006679    0.1717649876E-06
        3        4        6     -9.4542     -9.4542      222.8786157098    0.1236393837E+02
        3        5        1     -9.4542      0.3602        0.0000003212    0.1017275883E+07
        3        5        2     -9.4542      0.3602        0.0000009314    0.1017275883E+07
        3        5        3     -9.4542      0.3602        0.0000031678    0.1017275883E+07
        3        5        4     -9.4542      0.3602       61.5365006679    0.1441220282E+00
        3        5        5     -9.4542      0.3602       61.5365006679    0.1441220282E+00
        3        5        6     -9.4542      0.3602      222.8786157098    0.1234330616E+00
        3        6        1     -9.4542      1.0972        0.0000003212    0.4629461995E+04
        3        6        2     -9.4542      1.0972        0.0000009314    0.4629461995E+04
        3        6        3     -9.4542      1.0972        0.0000031678    0.4629461995E+04
        3        6        4     -9.4542      1.0972       61.5365006679    0.6837858293E-04
        3        6        5     -9.4542      1.0972       61.5365006679    0.6837858293E-04
        3        6        6     -9.4542      1.0972      222.8786157098    0.3280178731E+01
        4        3        1     -9.4542     -9.4542        0.0000003212    0.3008801972E+03
        4        3        2     -9.4542     -9.4542        0.0000009314    0.3008801972E+03
        4        3        3     -9.4542     -9.4542        0.0000031678    0.3008801972E+03
        4        3        4     -9.4542     -9.4542       61.5365006679    0.1717649876E-06
        4        3        5     -9.4542     -9.4542       61.5365006679    0.1717649876E-06
        4        3        6     -9.4542     -9.4542      222.8786157098    0.1236393837E+02
        4        4        1     -9.4542     -9.4542        0.0000003212    0.3008801972E+03
        4        4        2     -9.4542     -9.4542        0.0000009314    0.3008801972E+03
        4        4        3     -9.4542     -9.4542        0.0000031678    0.3008801972E+03
        4        4        4     -9.4542     -9.4542       61.5365006679    0.1717649876E-06
        4        4        5     -9.4542     -9.4542       61.5365006679    0.1717649876E-06
        4        4        6     -9.4542     -9.4542      222.8786157098    0.1236393837E+02
        4        5        1     -9.4542      0.3602        0.0000003212    0.1017275883E+07
        4        5        2     -9.4542      0.3602        0.0000009314    0.1017275883E+07
        4        5        3     -9.4542      0.3602        0.0000031678    0.1017275883E+07
        4        5        4     -9.4542      0.3602       61.5365006679    0.1441220282E+00
        4        5        5     -9.4542      0.3602       61.5365006679    0.1441220282E+00
        4        5        6     -9.4542      0.3602      222.8786157098    0.1234330616E+00
        4        6        1     -9.4542      1.0972        0.0000003212    0.4629461995E+04
        4        6        2     -9.4542      1.0972        0.0000009314    0.4629461995E+04
        4        6        3     -9.4542      1.0972        0.0000031678    0.4629461995E+04
        4        6        4     -9.4542      1.0972       61.5365006679    0.6837858293E-04
        4        6        5     -9.4542      1.0972       61.5365006679    0.6837858293E-04
        4        6        6     -9.4542      1.0972      222.8786157098    0.3280178731E+01
        5        3        1      0.3602     -9.4542        0.0000003212    0.1166149104E+07
        5        3        2      0.3602     -9.4542        0.0000009314    0.1166149104E+07
        5        3        3      0.3602     -9.4542        0.0000031678    0.1166149104E+07
        5        3        4      0.3602     -9.4542       61.5365006679    0.8506472377E+00
        5        3        5      0.3602     -9.4542       61.5365006679    0.8506472377E+00
        5        3        6      0.3602     -9.4542      222.8786157098    0.1276211224E+00
        5        4        1      0.3602     -9.4542        0.0000003212    0.1166149104E+07
        5        4        2      0.3602     -9.4542        0.0000009314    0.1166149104E+07
        5        4        3      0.3602     -9.4542        0.0000031678    0.1166149104E+07
        5        4        4      0.3602     -9.4542       61.5365006679    0.8506472377E+00
        5        4        5      0.3602     -9.4542       61.5365006679    0.8506472377E+00
        5        4        6      0.3602     -9.4542      222.8786157098    0.1276211224E+00
        5        5        1      0.3602      0.3602        0.0000003212    0.5247787895E+04
        5        5        2      0.3602      0.3602        0.0000009314    0.5247787895E+04
        5        5        3      0.3602      0.3602        0.0000031678    0.5247787895E+04
        5        5        4      0.3602      0.3602       61.5365006679    0.6160084583E-01
        5        5        5      0.3602      0.3602       61.5365006679    0.6160084583E-01
        5        5        6      0.3602      0.3602      222.8786157098    0.4368847791E+01
        5        6        1      0.3602      1.0972        0.0000003212    0.2571921685E+05
        5        6        2      0.3602      1.0972        0.0000009314    0.2571921685E+05
        5        6        3      0.3602      1.0972        0.0000031678    0.2571921685E+05
        5        6        4      0.3602      1.0972       61.5365006679    0.3308494263E+01
        5        6        5      0.3602      1.0972       61.5365006679    0.3308494263E+01
        5        6        6      0.3602      1.0972      222.8786157098    0.3550622490E-03
        6        3        1      1.0972     -9.4542        0.0000003212    0.4704281343E+04
        6        3        2      1.0972     -9.4542        0.0000009314    0.4704281343E+04
        6        3        3      1.0972     -9.4542        0.0000031678    0.4704281343E+04
        6        3        4      1.0972     -9.4542       61.5365006679    0.7142998946E-04
        6        3        5      1.0972     -9.4542       61.5365006679    0.7142998946E-04
        6        3        6      1.0972     -9.4542      222.8786157098    0.3391473025E+01
        6        4        1      1.0972     -9.4542        0.0000003212    0.4704281343E+04
        6        4        2      1.0972     -9.4542        0.0000009314    0.4704281343E+04
        6        4        3      1.0972     -9.4542        0.0000031678    0.4704281343E+04
        6        4        4      1.0972     -9.4542       61.5365006679    0.7142998946E-04
        6        4        5      1.0972     -9.4542       61.5365006679    0.7142998946E-04
        6        4        6      1.0972     -9.4542      222.8786157098    0.3391473025E+01
        6        5        1      1.0972      0.3602        0.0000003212    0.2454262172E+05
        6        5        2      1.0972      0.3602        0.0000009314    0.2454262172E+05
        6        5        3      1.0972      0.3602        0.0000031678    0.2454262172E+05
        6        5        4      1.0972      0.3602       61.5365006679    0.3340398234E+01
        6        5        5      1.0972      0.3602       61.5365006679    0.3340398234E+01
        6        5        6      1.0972      0.3602      222.8786157098    0.3551837727E-03
        6        6        1      1.0972      1.0972        0.0000003212    0.3643333316E+04
        6        6        2      1.0972      1.0972        0.0000009314    0.3643333316E+04
        6        6        3      1.0972      1.0972        0.0000031678    0.3643333316E+04
        6        6        4      1.0972      1.0972       61.5365006679    0.1184301915E-03
        6        6        5      1.0972      1.0972       61.5365006679    0.1184301915E-03
        6        6        6      1.0972      1.0972      222.8786157098    0.1314542349E-01
     ------------------------------------------------------------------------------

     ik =       6 coord.:    0.0000000   0.0000000   0.2500000
      ibnd     jbnd     imode   enk[eV]    enk+q[eV]  omega(q)[meV]   |g|[meV]
     ------------------------------------------------------------------------------
        3        3        1     -8.9728     -8.9728        0.0000003212    0.3017533106E+03
        3        3        2     -8.9728     -8.9728        0.0000009314    0.3017533106E+03
        3        3        3     -8.9728     -8.9728        0.0000031678    0.3017533106E+03
        3        3        4     -8.9728     -8.9728       61.5365006679    0.9874744961E-07
        3        3        5     -8.9728     -8.9728       61.5365006679    0.9874744961E-07
        3        3        6     -8.9728     -8.9728      222.8786157098    0.1042852860E+02
        3        4        1     -8.9728     -8.9728        0.0000003212    0.3017533106E+03
        3        4        2     -8.9728     -8.9728        0.0000009314    0.3017533106E+03
        3        4        3     -8.9728     -8.9728        0.0000031678    0.3017533106E+03
        3        4        4     -8.9728     -8.9728       61.5365006679    0.9874744961E-07
        3        4        5     -8.9728     -8.9728       61.5365006679    0.9874744961E-07
        3        4        6     -8.9728     -8.9728      222.8786157098    0.1042852860E+02
        3        5        1     -8.9728      0.9628        0.0000003212    0.8435165635E+06
        3        5        2     -8.9728      0.9628        0.0000009314    0.8435165635E+06
        3        5        3     -8.9728      0.9628        0.0000031678    0.8435165635E+06
        3        5        4     -8.9728      0.9628       61.5365006679    0.4385772463E+00
        3        5        5     -8.9728      0.9628       61.5365006679    0.4385772463E+00
        3        5        6     -8.9728      0.9628      222.8786157098    0.1420604991E+03
        3        6        1     -8.9728      1.1786        0.0000003212    0.4197030830E+05
        3        6        2     -8.9728      1.1786        0.0000009314    0.4197030830E+05
        3        6        3     -8.9728      1.1786        0.0000031678    0.4197030830E+05
        3        6        4     -8.9728      1.1786       61.5365006679    0.4219779010E-05
        3        6        5     -8.9728      1.1786       61.5365006679    0.4219779010E-05
        3        6        6     -8.9728      1.1786      222.8786157098    0.2414659558E+03
        4        3        1     -8.9728     -8.9728        0.0000003212    0.3017533106E+03
        4        3        2     -8.9728     -8.9728        0.0000009314    0.3017533106E+03
        4        3        3     -8.9728     -8.9728        0.0000031678    0.3017533106E+03
        4        3        4     -8.9728     -8.9728       61.5365006679    0.9874744961E-07
        4        3        5     -8.9728     -8.9728       61.5365006679    0.9874744961E-07
        4        3        6     -8.9728     -8.9728      222.8786157098    0.1042852860E+02
        4        4        1     -8.9728     -8.9728        0.0000003212    0.3017533106E+03
        4        4        2     -8.9728     -8.9728        0.0000009314    0.3017533106E+03
        4        4        3     -8.9728     -8.9728        0.0000031678    0.3017533106E+03
        4        4        4     -8.9728     -8.9728       61.5365006679    0.9874744961E-07
        4        4        5     -8.9728     -8.9728       61.5365006679    0.9874744961E-07
        4        4        6     -8.9728     -8.9728      222.8786157098    0.1042852860E+02
        4        5        1     -8.9728      0.9628        0.0000003212    0.8435165635E+06
        4        5        2     -8.9728      0.9628        0.0000009314    0.8435165635E+06
        4        5        3     -8.9728      0.9628        0.0000031678    0.8435165635E+06
        4        5        4     -8.9728      0.9628       61.5365006679    0.4385772463E+00
        4        5        5     -8.9728      0.9628       61.5365006679    0.4385772463E+00
        4        5        6     -8.9728      0.9628      222.8786157098    0.1420604991E+03
        4        6        1     -8.9728      1.1786        0.0000003212    0.4197030830E+05
        4        6        2     -8.9728      1.1786        0.0000009314    0.4197030830E+05
        4        6        3     -8.9728      1.1786        0.0000031678    0.4197030830E+05
        4        6        4     -8.9728      1.1786       61.5365006679    0.4219779010E-05
        4        6        5     -8.9728      1.1786       61.5365006679    0.4219779010E-05
        4        6        6     -8.9728      1.1786      222.8786157098    0.2414659558E+03
        5        3        1      0.9628     -8.9728        0.0000003212    0.9623027448E+06
        5        3        2      0.9628     -8.9728        0.0000009314    0.9623027448E+06
        5        3        3      0.9628     -8.9728        0.0000031678    0.9623027448E+06
        5        3        4      0.9628     -8.9728       61.5365006679    0.5117519249E+00
        5        3        5      0.9628     -8.9728       61.5365006679    0.5117519249E+00
        5        3        6      0.9628     -8.9728      222.8786157098    0.1446180732E+03
        5        4        1      0.9628     -8.9728        0.0000003212    0.9623027448E+06
        5        4        2      0.9628     -8.9728        0.0000009314    0.9623027448E+06
        5        4        3      0.9628     -8.9728        0.0000031678    0.9623027448E+06
        5        4        4      0.9628     -8.9728       61.5365006679    0.5117519249E+00
        5        4        5      0.9628     -8.9728       61.5365006679    0.5117519249E+00
        5        4        6      0.9628     -8.9728      222.8786157098    0.1446180732E+03
        5        5        1      0.9628      0.9628        0.0000003212    0.1883549525E+04
        5        5        2      0.9628      0.9628        0.0000009314    0.1883549525E+04
        5        5        3      0.9628      0.9628        0.0000031678    0.1883549525E+04
        5        5        4      0.9628      0.9628       61.5365006679    0.9821116143E+00
        5        5        5      0.9628      0.9628       61.5365006679    0.9821116143E+00
        5        5        6      0.9628      0.9628      222.8786157098    0.2099793176E+02
        5        6        1      0.9628      1.1786        0.0000003212    0.4533950026E+03
        5        6        2      0.9628      1.1786        0.0000009314    0.4533950026E+03
        5        6        3      0.9628      1.1786        0.0000031678    0.4533950026E+03
        5        6        4      0.9628      1.1786       61.5365006679    0.1570750297E+03
        5        6        5      0.9628      1.1786       61.5365006679    0.1570750297E+03
        5        6        6      0.9628      1.1786      222.8786157098    0.2818406423E-03
        6        3        1      1.1786     -8.9728        0.0000003212    0.4238111700E+05
        6        3        2      1.1786     -8.9728        0.0000009314    0.4238111700E+05
        6        3        3      1.1786     -8.9728        0.0000031678    0.4238111700E+05
        6        3        4      1.1786     -8.9728       61.5365006679    0.1444849647E-04
        6        3        5      1.1786     -8.9728       61.5365006679    0.1444849647E-04
        6        3        6      1.1786     -8.9728      222.8786157098    0.2458131677E+03
        6        4        1      1.1786     -8.9728        0.0000003212    0.4238111700E+05
        6        4        2      1.1786     -8.9728        0.0000009314    0.4238111700E+05
        6        4        3      1.1786     -8.9728        0.0000031678    0.4238111700E+05
        6        4        4      1.1786     -8.9728       61.5365006679    0.1444849647E-04
        6        4        5      1.1786     -8.9728       61.5365006679    0.1444849647E-04
        6        4        6      1.1786     -8.9728      222.8786157098    0.2458131677E+03
        6        5        1      1.1786      0.9628        0.0000003212    0.3504920022E+03
        6        5        2      1.1786      0.9628        0.0000009314    0.3504920022E+03
        6        5        3      1.1786      0.9628        0.0000031678    0.3504920022E+03
        6        5        4      1.1786      0.9628       61.5365006679    0.1575792173E+03
        6        5        5      1.1786      0.9628       61.5365006679    0.1575792173E+03
        6        5        6      1.1786      0.9628      222.8786157098    0.2818265017E-03
        6        6        1      1.1786      1.1786        0.0000003212    0.4359727428E+03
        6        6        2      1.1786      1.1786        0.0000009314    0.4359727428E+03
        6        6        3      1.1786      1.1786        0.0000031678    0.4359727428E+03
        6        6        4      1.1786      1.1786       61.5365006679    0.1456571530E-03
        6        6        5      1.1786      1.1786       61.5365006679    0.1456571530E-03
        6        6        6      1.1786      1.1786      222.8786157098    0.5394289315E+02
     ------------------------------------------------------------------------------

     ik =       7 coord.:    0.0000000   0.0000000   0.3000000
      ibnd     jbnd     imode   enk[eV]    enk+q[eV]  omega(q)[meV]   |g|[meV]
     ------------------------------------------------------------------------------
        3        3        1     -8.3864     -8.3864        0.0000003212    0.3029215170E+03
        3        3        2     -8.3864     -8.3864        0.0000009314    0.3029215170E+03
        3        3        3     -8.3864     -8.3864        0.0000031678    0.3029215170E+03
        3        3        4     -8.3864     -8.3864       61.5365006679    0.2500504274E-06
        3        3        5     -8.3864     -8.3864       61.5365006679    0.2500504274E-06
        3        3        6     -8.3864     -8.3864      222.8786157098    0.7304613827E+01
        3        4        1     -8.3864     -8.3864        0.0000003212    0.3029215170E+03
        3        4        2     -8.3864     -8.3864        0.0000009314    0.3029215170E+03
        3        4        3     -8.3864     -8.3864        0.0000031678    0.3029215170E+03
        3        4        4     -8.3864     -8.3864       61.5365006679    0.2500504274E-06
        3        4        5     -8.3864     -8.3864       61.5365006679    0.2500504274E-06
        3        4        6     -8.3864     -8.3864      222.8786157098    0.7304613827E+01
        3        5        1     -8.3864     -0.1738        0.0000003212    0.4171480273E+05
        3        5        2     -8.3864     -0.1738        0.0000009314    0.4171480273E+05
        3        5        3     -8.3864     -0.1738        0.0000031678    0.4171480273E+05
        3        5        4     -8.3864     -0.1738       61.5365006679    0.7661421663E-05
        3        5        5     -8.3864     -0.1738       61.5365006679    0.7661421663E-05
        3        5        6     -8.3864     -0.1738      222.8786157098    0.2565320690E+03
        3        6        1     -8.3864      0.1108        0.0000003212    0.4490980378E+06
        3        6        2     -8.3864      0.1108        0.0000009314    0.4490980378E+06
        3        6        3     -8.3864      0.1108        0.0000031678    0.4490980378E+06
        3        6        4     -8.3864      0.1108       61.5365006679    0.4574450895E+00
        3        6        5     -8.3864      0.1108       61.5365006679    0.4574450895E+00
        3        6        6     -8.3864      0.1108      222.8786157098    0.2327774084E+03
        4        3        1     -8.3864     -8.3864        0.0000003212    0.3029215170E+03
        4        3        2     -8.3864     -8.3864        0.0000009314    0.3029215170E+03
        4        3        3     -8.3864     -8.3864        0.0000031678    0.3029215170E+03
        4        3        4     -8.3864     -8.3864       61.5365006679    0.2500504274E-06
        4        3        5     -8.3864     -8.3864       61.5365006679    0.2500504274E-06
        4        3        6     -8.3864     -8.3864      222.8786157098    0.7304613827E+01
        4        4        1     -8.3864     -8.3864        0.0000003212    0.3029215170E+03
        4        4        2     -8.3864     -8.3864        0.0000009314    0.3029215170E+03
        4        4        3     -8.3864     -8.3864        0.0000031678    0.3029215170E+03
        4        4        4     -8.3864     -8.3864       61.5365006679    0.2500504274E-06
        4        4        5     -8.3864     -8.3864       61.5365006679    0.2500504274E-06
        4        4        6     -8.3864     -8.3864      222.8786157098    0.7304613827E+01
        4        5        1     -8.3864     -0.1738        0.0000003212    0.4171480273E+05
        4        5        2     -8.3864     -0.1738        0.0000009314    0.4171480273E+05
        4        5        3     -8.3864     -0.1738        0.0000031678    0.4171480273E+05
        4        5        4     -8.3864     -0.1738       61.5365006679    0.7661421663E-05
        4        5        5     -8.3864     -0.1738       61.5365006679    0.7661421663E-05
        4        5        6     -8.3864     -0.1738      222.8786157098    0.2565320690E+03
        4        6        1     -8.3864      0.1108        0.0000003212    0.4490980378E+06
        4        6        2     -8.3864      0.1108        0.0000009314    0.4490980378E+06
        4        6        3     -8.3864      0.1108        0.0000031678    0.4490980378E+06
        4        6        4     -8.3864      0.1108       61.5365006679    0.4574450895E+00
        4        6        5     -8.3864      0.1108       61.5365006679    0.4574450895E+00
        4        6        6     -8.3864      0.1108      222.8786157098    0.2327774084E+03
        5        3        1     -0.1738     -8.3864        0.0000003212    0.4204228252E+05
        5        3        2     -0.1738     -8.3864        0.0000009314    0.4204228252E+05
        5        3        3     -0.1738     -8.3864        0.0000031678    0.4204228252E+05
        5        3        4     -0.1738     -8.3864       61.5365006679    0.3589291586E-05
        5        3        5     -0.1738     -8.3864       61.5365006679    0.3589291586E-05
        5        3        6     -0.1738     -8.3864      222.8786157098    0.2602215052E+03
        5        4        1     -0.1738     -8.3864        0.0000003212    0.4204228252E+05
        5        4        2     -0.1738     -8.3864        0.0000009314    0.4204228252E+05
        5        4        3     -0.1738     -8.3864        0.0000031678    0.4204228252E+05
        5        4        4     -0.1738     -8.3864       61.5365006679    0.3589291586E-05
        5        4        5     -0.1738     -8.3864       61.5365006679    0.3589291586E-05
        5        4        6     -0.1738     -8.3864      222.8786157098    0.2602215052E+03
        5        5        1     -0.1738     -0.1738        0.0000003212    0.4546745560E+03
        5        5        2     -0.1738     -0.1738        0.0000009314    0.4546745560E+03
        5        5        3     -0.1738     -0.1738        0.0000031678    0.4546745560E+03
        5        5        4     -0.1738     -0.1738       61.5365006679    0.3381421088E-04
        5        5        5     -0.1738     -0.1738       61.5365006679    0.3381421088E-04
        5        5        6     -0.1738     -0.1738      222.8786157098    0.6440940264E+02
        5        6        1     -0.1738      0.1108        0.0000003212    0.1193554960E+04
        5        6        2     -0.1738      0.1108        0.0000009314    0.1193554960E+04
        5        6        3     -0.1738      0.1108        0.0000031678    0.1193554960E+04
        5        6        4     -0.1738      0.1108       61.5365006679    0.8494421998E+02
        5        6        5     -0.1738      0.1108       61.5365006679    0.8494421998E+02
        5        6        6     -0.1738      0.1108      222.8786157098    0.1664565391E-04
        6        3        1      0.1108     -8.3864        0.0000003212    0.5086378661E+06
        6        3        2      0.1108     -8.3864        0.0000009314    0.5086378661E+06
        6        3        3      0.1108     -8.3864        0.0000031678    0.5086378661E+06
        6        3        4      0.1108     -8.3864       61.5365006679    0.1028589253E+00
        6        3        5      0.1108     -8.3864       61.5365006679    0.1028589253E+00
        6        3        6      0.1108     -8.3864      222.8786157098    0.2361252058E+03
        6        4        1      0.1108     -8.3864        0.0000003212    0.5086378661E+06
        6        4        2      0.1108     -8.3864        0.0000009314    0.5086378661E+06
        6        4        3      0.1108     -8.3864        0.0000031678    0.5086378661E+06
        6        4        4      0.1108     -8.3864       61.5365006679    0.1028589253E+00
        6        4        5      0.1108     -8.3864       61.5365006679    0.1028589253E+00
        6        4        6      0.1108     -8.3864      222.8786157098    0.2361252058E+03
        6        5        1      0.1108     -0.1738        0.0000003212    0.1672115192E+04
        6        5        2      0.1108     -0.1738        0.0000009314    0.1672115192E+04
        6        5        3      0.1108     -0.1738        0.0000031678    0.1672115192E+04
        6        5        4      0.1108     -0.1738       61.5365006679    0.8625394503E+02
        6        5        5      0.1108     -0.1738       61.5365006679    0.8625394503E+02
        6        5        6      0.1108     -0.1738      222.8786157098    0.1666950043E-04
        6        6        1      0.1108      0.1108        0.0000003212    0.4409840813E+04
        6        6        2      0.1108      0.1108        0.0000009314    0.4409840813E+04
        6        6        3      0.1108      0.1108        0.0000031678    0.4409840813E+04
        6        6        4      0.1108      0.1108       61.5365006679    0.1404494783E+01
        6        6        5      0.1108      0.1108       61.5365006679    0.1404494783E+01
        6        6        6      0.1108      0.1108      222.8786157098    0.5343180797E+02
     ------------------------------------------------------------------------------

     ik =       8 coord.:    0.0000000   0.0000000   0.3500000
      ibnd     jbnd     imode   enk[eV]    enk+q[eV]  omega(q)[meV]   |g|[meV]
     ------------------------------------------------------------------------------
        3        3        1     -7.6969     -7.6969        0.0000003212    0.3044813070E+03
        3        3        2     -7.6969     -7.6969        0.0000009314    0.3044813070E+03
        3        3        3     -7.6969     -7.6969        0.0000031678    0.3044813070E+03
        3        3        4     -7.6969     -7.6969       61.5365006679    0.2039056724E-06
        3        3        5     -7.6969     -7.6969       61.5365006679    0.2039056724E-06
        3        3        6     -7.6969     -7.6969      222.8786157098    0.1846822795E+01
[...]
   17    4    4  0.0000  0.0000    0.000000E+00    0.000000E+00    0.000000E+00    0.000000E+00    0.513359E+00    0.555112E-16
   17    4    5  0.0000  0.0000   -0.303761E-04   -0.494206E-02   -0.444737E-03    0.556558E-03    0.110836E-02   -0.675064E-04
   17    4    6  0.0000  0.0000    0.316381E-03   -0.638318E-03    0.449161E-02   -0.206162E-02   -0.456215E-02   -0.417447E-03
   17    4    7  0.0000  0.0000    0.135441E-06    0.301691E-05    0.353112E-04    0.485527E-03   -0.199169E-01   -0.256817E-01
   17    4    8  0.0000  0.0000    0.374019E-05    0.135560E-01   -0.750645E-06   -0.927432E-04    0.223310E-02   -0.327386E-04
   17    5    3  0.0000  0.0000    0.426458E-02   -0.685829E+00    0.617124E-01    0.772402E-01   -0.207081E-02   -0.630198E-03
   17    5    4  0.0000  0.0000   -0.303761E-04    0.494206E-02   -0.444737E-03   -0.556558E-03    0.142841E-02    0.242410E-03
   17    5    5  0.0000  0.0000   -0.191528E-23    0.000000E+00   -0.811279E-24    0.000000E+00   -0.699448E+00    0.000000E+00
   17    5    6  0.0000  0.0000    0.000000E+00    0.000000E+00    0.000000E+00    0.000000E+00    0.000000E+00    0.000000E+00
   17    5    7  0.0000  0.0000   -0.264686E-01   -0.377198E+00    0.371700E-01    0.398684E-01   -0.614226E-03    0.134398E-02
   17    5    8  0.0000  0.0000   -0.686988E-06   -0.405987E-04    0.372567E-05    0.450154E-05   -0.224108E+00    0.889587E-01
   17    6    3  0.0000  0.0000   -0.438991E-01   -0.885852E-01   -0.623299E+00   -0.286145E+00    0.973382E-02    0.350771E-02
   17    6    4  0.0000  0.0000    0.316381E-03    0.638318E-03    0.449161E-02    0.206162E-02   -0.490027E-02   -0.342928E-03
   17    6    5  0.0000  0.0000    0.000000E+00    0.000000E+00    0.000000E+00    0.000000E+00    0.000000E+00    0.000000E+00
   17    6    6  0.0000  0.0000    0.191528E-23    0.000000E+00    0.811279E-24    0.000000E+00   -0.484440E+00    0.000000E+00
   17    6    7  0.0000  0.0000   -0.278541E-01   -0.468534E-01   -0.354666E+00   -0.131116E+00    0.747294E-02   -0.134029E-01
   17    6    8  0.0000  0.0000   -0.270204E-05   -0.512006E-05   -0.373096E-04   -0.158599E-04   -0.233627E-01    0.941763E-02
   17    7    3  0.0000  0.0000   -0.386747E-06    0.669690E-05   -0.794778E-04    0.109234E-02    0.934151E-01   -0.137422E+00
   17    7    4  0.0000  0.0000    0.135441E-06   -0.301691E-05    0.353112E-04   -0.485527E-03   -0.307697E-01    0.116802E+00
   17    7    5  0.0000  0.0000   -0.264686E-01    0.377198E+00    0.371700E-01   -0.398684E-01   -0.389271E-02   -0.124989E-02
   17    7    6  0.0000  0.0000   -0.278541E-01    0.468534E-01   -0.354666E+00    0.131116E+00    0.470803E-01    0.112467E-01
   17    7    7  0.0000  0.0000    0.000000E+00    0.000000E+00    0.000000E+00    0.000000E+00   -0.764978E+00    0.624500E-16
   17    7    8  0.0000  0.0000   -0.123480E-01    0.162227E+00    0.675854E-04   -0.111271E-02    0.876255E-04    0.548028E-03
   17    8    3  0.0000  0.0000   -0.917858E-05    0.301197E-01    0.323697E-05   -0.206087E-03   -0.726293E-02    0.110482E-02
   17    8    4  0.0000  0.0000    0.374019E-05   -0.135560E-01   -0.750645E-06    0.927432E-04    0.613474E-02   -0.889696E-03
   17    8    5  0.0000  0.0000   -0.686988E-06    0.405987E-04    0.372567E-05   -0.450154E-05   -0.127072E+01    0.205904E+00
   17    8    6  0.0000  0.0000   -0.270204E-05    0.512006E-05   -0.373096E-04    0.158599E-04   -0.128870E+00    0.180160E-01
   17    8    7  0.0000  0.0000   -0.123480E-01   -0.162227E+00    0.675854E-04    0.111271E-02    0.158774E-02   -0.594402E-03
   17    8    8  0.0000  0.0000    0.000000E+00    0.000000E+00    0.000000E+00    0.000000E+00   -0.384258E+00   -0.111022E-15

     ik =      18 coord.:   0.0000000   0.0000000   0.8500000
   ik   iband   jband Enk[eV] Emk[eV] vmef_x[Ryd*bohr] vmef_y[Ryd*bohr] vmef_z[Ryd*bohr]
   18    3    3  0.0000  0.0000    0.000000E+00    0.000000E+00    0.000000E+00    0.000000E+00   -0.219737E+00   -0.104083E-15
   18    3    4  0.0000  0.0000    0.384067E-10   -0.502613E-10    0.170471E-10   -0.420377E-11    0.169063E-01   -0.529489E-02
   18    3    5  0.0000  0.0000    0.526711E-02    0.680569E+00    0.743906E-01   -0.718709E-01   -0.437939E-03    0.287321E-03
   18    3    6  0.0000  0.0000   -0.468949E-01    0.921969E-01   -0.652191E+00    0.194550E+00    0.652984E-02   -0.377242E-02
   18    3    7  0.0000  0.0000   -0.302272E-06   -0.499371E-05   -0.635080E-04   -0.847416E-03    0.626325E-01   -0.125845E-01
   18    3    8  0.0000  0.0000   -0.146983E-04   -0.310016E-01    0.321025E-05    0.204425E-03    0.188011E-02    0.896936E-03
   18    4    3  0.0000  0.0000    0.384067E-10    0.502611E-10    0.170476E-10    0.420391E-11    0.168210E-01    0.619035E-02
   18    4    4  0.0000  0.0000    0.000000E+00    0.000000E+00    0.000000E+00    0.000000E+00    0.411653E+00   -0.159595E-15
   18    4    5  0.0000  0.0000   -0.345404E-04   -0.447998E-02   -0.489705E-03    0.473090E-03    0.166418E-03   -0.212576E-03
   18    4    6  0.0000  0.0000    0.308713E-03   -0.606895E-03    0.429321E-02   -0.128054E-02   -0.464526E-02    0.325789E-02
   18    4    7  0.0000  0.0000    0.618781E-07    0.106304E-05    0.135383E-04    0.180760E-03   -0.176158E-01    0.100958E-01
   18    4    8  0.0000  0.0000    0.300439E-05    0.670804E-02   -0.867839E-06   -0.440905E-04   -0.160853E-02   -0.727588E-03
   18    5    3  0.0000  0.0000    0.526711E-02   -0.680569E+00    0.743906E-01    0.718709E-01   -0.625712E-03   -0.400830E-03
   18    5    4  0.0000  0.0000   -0.345404E-04    0.447998E-02   -0.489705E-03   -0.473090E-03    0.596303E-04    0.222119E-03
   18    5    5  0.0000  0.0000   -0.373058E-22    0.000000E+00   -0.174796E-22    0.000000E+00   -0.366999E+00    0.000000E+00
   18    5    6  0.0000  0.0000    0.000000E+00    0.000000E+00    0.000000E+00    0.000000E+00    0.000000E+00    0.000000E+00
   18    5    7  0.0000  0.0000   -0.259673E-01   -0.370227E+00    0.434885E-01    0.359225E-01    0.182146E-02   -0.188744E-02
   18    5    8  0.0000  0.0000   -0.487441E-06   -0.319008E-04    0.351580E-05    0.327455E-05    0.534665E+00    0.195018E+00
   18    6    3  0.0000  0.0000   -0.468949E-01   -0.921969E-01   -0.652191E+00   -0.194550E+00    0.815889E-02    0.467542E-02
   18    6    4  0.0000  0.0000    0.308713E-03    0.606895E-03    0.429321E-02    0.128054E-02   -0.371647E-02   -0.333029E-02
   18    6    5  0.0000  0.0000    0.000000E+00    0.000000E+00    0.000000E+00    0.000000E+00    0.000000E+00    0.000000E+00
   18    6    6  0.0000  0.0000    0.373058E-22    0.000000E+00    0.174796E-22    0.000000E+00   -0.287123E+00    0.000000E+00
   18    6    7  0.0000  0.0000   -0.294010E-01   -0.481379E-01   -0.362817E+00   -0.781420E-01   -0.161497E-01    0.160818E-01
   18    6    8  0.0000  0.0000   -0.226361E-05   -0.421268E-05   -0.305740E-04   -0.806121E-05    0.636410E-01    0.206064E-01
   18    7    3  0.0000  0.0000   -0.302272E-06    0.499371E-05   -0.635080E-04    0.847416E-03    0.587126E-01    0.176530E-01
   18    7    4  0.0000  0.0000    0.618781E-07   -0.106304E-05    0.135383E-04   -0.180760E-03   -0.155037E-01   -0.162245E-01
   18    7    5  0.0000  0.0000   -0.259673E-01    0.370227E+00    0.434885E-01   -0.359225E-01    0.151465E-02    0.187796E-02
   18    7    6  0.0000  0.0000   -0.294010E-01    0.481379E-01   -0.362817E+00    0.781420E-01   -0.135291E-01   -0.158693E-01
   18    7    7  0.0000  0.0000    0.000000E+00    0.000000E+00    0.000000E+00    0.000000E+00   -0.248670E+00    0.218575E-15
   18    7    8  0.0000  0.0000   -0.124837E-01    0.161199E+00    0.662716E-04   -0.106483E-02   -0.274528E-03   -0.627583E-03
   18    8    3  0.0000  0.0000   -0.146983E-04    0.310016E-01    0.321025E-05   -0.204425E-03    0.191246E-02   -0.440247E-03
   18    8    4  0.0000  0.0000    0.300439E-05   -0.670804E-02   -0.867839E-06    0.440905E-04   -0.164060E-02    0.364884E-03
   18    8    5  0.0000  0.0000   -0.487441E-06    0.319008E-04    0.351580E-05   -0.327455E-05    0.535343E+00   -0.192636E+00
   18    8    6  0.0000  0.0000   -0.226361E-05    0.421268E-05   -0.305740E-04    0.806121E-05    0.637030E-01   -0.203032E-01
   18    8    7  0.0000  0.0000   -0.124837E-01   -0.161199E+00    0.662716E-04    0.106483E-02   -0.270017E-03    0.658483E-03
   18    8    8  0.0000  0.0000    0.000000E+00    0.000000E+00    0.000000E+00    0.000000E+00   -0.383309E+00    0.305311E-15

     ik =      19 coord.:   0.0000000   0.0000000   0.9000000
   ik   iband   jband Enk[eV] Emk[eV] vmef_x[Ryd*bohr] vmef_y[Ryd*bohr] vmef_z[Ryd*bohr]
   19    3    3  0.0000  0.0000    0.000000E+00    0.000000E+00    0.000000E+00    0.000000E+00   -0.143555E+00   -0.256739E-15
   19    3    4  0.0000  0.0000    0.897403E-13    0.305691E-10   -0.356415E-10    0.816173E-12    0.659074E-02   -0.505711E-02
   19    3    5  0.0000  0.0000    0.640048E-02    0.676590E+00    0.888813E-01   -0.603019E-01   -0.117680E-02    0.215114E-03
   19    3    6  0.0000  0.0000   -0.490365E-01    0.955596E-01   -0.672340E+00    0.759907E-01    0.737379E-02    0.330053E-04
   19    3    7  0.0000  0.0000   -0.250068E-06   -0.392735E-05   -0.539212E-04   -0.687851E-03    0.375560E-01    0.256367E-01
   19    3    8  0.0000  0.0000   -0.192052E-04   -0.317054E-01    0.305764E-05    0.203251E-03   -0.103794E-02   -0.505532E-03
   19    4    3  0.0000  0.0000    0.905854E-13   -0.305692E-10   -0.356416E-10   -0.816167E-12    0.653896E-02    0.615807E-02
   19    4    4  0.0000  0.0000    0.000000E+00    0.000000E+00    0.000000E+00    0.000000E+00    0.297343E+00   -0.107553E-15
   19    4    5  0.0000  0.0000   -0.388233E-04   -0.410127E-02   -0.538768E-03    0.365534E-03    0.873916E-03   -0.124750E-03
   19    4    6  0.0000  0.0000    0.297240E-03   -0.579254E-03    0.407551E-02   -0.460656E-03   -0.483780E-02   -0.773946E-03
   19    4    7  0.0000  0.0000    0.387568E-07    0.611400E-06    0.837716E-05    0.106859E-03   -0.117718E-01   -0.294060E-01
   19    4    8  0.0000  0.0000    0.301823E-05    0.500403E-02   -0.518024E-06   -0.319202E-04    0.884770E-03    0.395560E-03
   19    5    3  0.0000  0.0000    0.640048E-02   -0.676590E+00    0.888813E-01    0.603019E-01   -0.141501E-02   -0.287757E-03
   19    5    4  0.0000  0.0000   -0.388233E-04    0.410127E-02   -0.538768E-03   -0.365534E-03    0.745982E-03    0.134430E-03
   19    5    5  0.0000  0.0000   -0.607775E-22    0.000000E+00   -0.296377E-22    0.000000E+00   -0.282619E+00    0.000000E+00
   19    5    6  0.0000  0.0000    0.000000E+00    0.000000E+00    0.000000E+00    0.000000E+00    0.000000E+00    0.000000E+00
   19    5    7  0.0000  0.0000   -0.260554E-01   -0.365483E+00    0.506057E-01    0.286726E-01   -0.798887E-03    0.157758E-02
   19    5    8  0.0000  0.0000   -0.889486E-06   -0.259430E-04    0.342833E-05    0.219796E-05   -0.266580E+00   -0.205595E+00
   19    6    3  0.0000  0.0000   -0.490365E-01   -0.955596E-01   -0.672340E+00   -0.759907E-01    0.917418E-02    0.442880E-03
   19    6    4  0.0000  0.0000    0.297240E-03    0.579254E-03    0.407551E-02    0.460656E-03   -0.388128E-02    0.689260E-03
   19    6    5  0.0000  0.0000    0.000000E+00    0.000000E+00    0.000000E+00    0.000000E+00    0.000000E+00    0.000000E+00
   19    6    6  0.0000  0.0000    0.607775E-22    0.000000E+00    0.296377E-22    0.000000E+00   -0.243443E+00    0.000000E+00
   19    6    7  0.0000  0.0000   -0.306364E-01   -0.494415E-01   -0.366224E+00   -0.116927E-01    0.590631E-02   -0.116764E-01
   19    6    8  0.0000  0.0000   -0.196260E-05   -0.351415E-05   -0.256305E-04   -0.157137E-05   -0.373413E-01   -0.263070E-01
   19    7    3  0.0000  0.0000   -0.250068E-06    0.392735E-05   -0.539212E-04    0.687851E-03    0.348118E-01   -0.201246E-01
   19    7    4  0.0000  0.0000    0.387568E-07   -0.611400E-06    0.837716E-05   -0.106859E-03   -0.102737E-01    0.228613E-01
   19    7    5  0.0000  0.0000   -0.260554E-01    0.365483E+00    0.506057E-01   -0.286726E-01   -0.114378E-02   -0.162167E-02
   19    7    6  0.0000  0.0000   -0.306364E-01    0.494415E-01   -0.366224E+00    0.116927E-01    0.849096E-02    0.120941E-01
   19    7    7  0.0000  0.0000    0.000000E+00    0.000000E+00    0.000000E+00    0.000000E+00   -0.310351E+00   -0.104083E-15
   19    7    8  0.0000  0.0000   -0.128357E-01    0.160058E+00    0.672267E-04   -0.102837E-02    0.163799E-03    0.664204E-03
   19    8    3  0.0000  0.0000   -0.192052E-04    0.317054E-01    0.305764E-05   -0.203251E-03   -0.101622E-02    0.766549E-03
   19    8    4  0.0000  0.0000    0.301823E-05   -0.500403E-02   -0.518024E-06    0.319202E-04    0.862006E-03   -0.596831E-03
   19    8    5  0.0000  0.0000   -0.889486E-06    0.259430E-04    0.342833E-05   -0.219796E-05   -0.266102E+00    0.207458E+00
   19    8    6  0.0000  0.0000   -0.196260E-05    0.351415E-05   -0.256305E-04    0.157137E-05   -0.372735E-01    0.265806E-01
   19    8    7  0.0000  0.0000   -0.128357E-01   -0.160058E+00    0.672267E-04    0.102837E-02    0.164466E-03   -0.655461E-03
   19    8    8  0.0000  0.0000    0.000000E+00    0.000000E+00    0.000000E+00    0.000000E+00   -0.272013E+00   -0.971445E-16

     ik =      20 coord.:   0.0000000   0.0000000   0.9500000
   ik   iband   jband Enk[eV] Emk[eV] vmef_x[Ryd*bohr] vmef_y[Ryd*bohr] vmef_z[Ryd*bohr]
   20    3    3  0.0000  0.0000    0.000000E+00    0.000000E+00    0.000000E+00    0.000000E+00   -0.743037E-01    0.379904E-15
   20    3    4  0.0000  0.0000   -0.654932E-11    0.916256E-11    0.113432E-10   -0.789096E-12    0.561642E-02   -0.585079E-02
   20    3    5  0.0000  0.0000    0.740219E-02    0.674193E+00    0.101814E+00   -0.404200E-01   -0.829468E-03   -0.170530E-03
   20    3    6  0.0000  0.0000   -0.493134E-01    0.978169E-01   -0.670864E+00   -0.673232E-01    0.608846E-02   -0.158084E-03
   20    3    7  0.0000  0.0000   -0.225297E-06   -0.333892E-05   -0.486642E-04   -0.597141E-03    0.188692E-01   -0.122617E-01
   20    3    8  0.0000  0.0000   -0.222039E-04   -0.321411E-01    0.317463E-05    0.203056E-03    0.457314E-03    0.855596E-03
   20    4    3  0.0000  0.0000   -0.654924E-11   -0.916241E-11    0.113435E-10    0.789086E-12    0.559301E-02    0.710023E-02
   20    4    4  0.0000  0.0000    0.000000E+00    0.000000E+00    0.000000E+00    0.000000E+00    0.152181E+00    0.351282E-15
   20    4    5  0.0000  0.0000   -0.424283E-04   -0.385133E-02   -0.581607E-03    0.230921E-03    0.420398E-03    0.168133E-03
   20    4    6  0.0000  0.0000    0.281682E-03   -0.558790E-03    0.383233E-02    0.384441E-03   -0.350915E-02    0.368284E-03
   20    4    7  0.0000  0.0000    0.297296E-07    0.448477E-06    0.653411E-05    0.801293E-04   -0.541476E-02    0.120872E-01
   20    4    8  0.0000  0.0000    0.320159E-05    0.438605E-02   -0.416932E-06   -0.277171E-04   -0.380513E-03   -0.660348E-03
   20    5    3  0.0000  0.0000    0.740219E-02   -0.674193E+00    0.101814E+00    0.404200E-01   -0.111070E-02    0.166683E-03
   20    5    4  0.0000  0.0000   -0.424283E-04    0.385133E-02   -0.581607E-03   -0.230921E-03    0.272273E-03   -0.143827E-03
   20    5    5  0.0000  0.0000   -0.514604E-23    0.000000E+00   -0.304764E-23    0.000000E+00   -0.122449E+00    0.000000E+00
   20    5    6  0.0000  0.0000    0.000000E+00    0.000000E+00    0.000000E+00    0.000000E+00    0.000000E+00    0.000000E+00
   20    5    7  0.0000  0.0000   -0.262945E-01   -0.362757E+00    0.565472E-01    0.171567E-01    0.185983E-02   -0.102112E-02
   20    5    8  0.0000  0.0000    0.152866E-07   -0.225883E-04    0.345554E-05    0.900858E-06    0.119535E+00    0.214622E+00
   20    6    3  0.0000  0.0000   -0.493134E-01   -0.978169E-01   -0.670864E+00    0.673232E-01    0.794308E-02    0.117704E-03
   20    6    4  0.0000  0.0000    0.281682E-03    0.558790E-03    0.383233E-02   -0.384441E-03   -0.254312E-02   -0.546679E-03
   20    6    5  0.0000  0.0000    0.000000E+00    0.000000E+00    0.000000E+00    0.000000E+00    0.000000E+00    0.000000E+00
   20    6    6  0.0000  0.0000    0.514604E-23    0.000000E+00    0.304764E-23    0.000000E+00   -0.105478E+00    0.000000E+00
   20    6    7  0.0000  0.0000   -0.309016E-01   -0.503689E-01   -0.357612E+00    0.663149E-01   -0.121300E-01    0.680037E-02
   20    6    8  0.0000  0.0000   -0.192610E-05   -0.333554E-05   -0.215339E-04    0.331058E-05    0.202430E-01    0.317651E-01
   20    7    3  0.0000  0.0000   -0.225297E-06    0.333892E-05   -0.486642E-04    0.597141E-03    0.172603E-01    0.180383E-01
   20    7    4  0.0000  0.0000    0.297296E-07   -0.448477E-06    0.653411E-05   -0.801293E-04   -0.441967E-02   -0.188800E-01
   20    7    5  0.0000  0.0000   -0.262945E-01    0.362757E+00    0.565472E-01   -0.171567E-01    0.147661E-02    0.926597E-03
   20    7    6  0.0000  0.0000   -0.309016E-01    0.503689E-01   -0.357612E+00   -0.663149E-01   -0.961972E-02   -0.610036E-02
   20    7    7  0.0000  0.0000    0.000000E+00    0.000000E+00    0.000000E+00    0.000000E+00   -0.960414E-01   -0.346945E-16
   20    7    8  0.0000  0.0000   -0.131918E-01    0.159254E+00    0.682710E-04   -0.100730E-02   -0.443518E-04   -0.664649E-03
   20    8    3  0.0000  0.0000   -0.222039E-04    0.321411E-01    0.317463E-05   -0.203056E-03    0.467391E-03   -0.665859E-03
   20    8    4  0.0000  0.0000    0.320159E-05   -0.438605E-02   -0.416932E-06    0.277171E-04   -0.391803E-03    0.514775E-03
   20    8    5  0.0000  0.0000    0.152866E-07    0.225883E-04    0.345554E-05   -0.900858E-06    0.119764E+00   -0.213042E+00
   20    8    6  0.0000  0.0000   -0.192610E-05    0.333554E-05   -0.215339E-04   -0.331058E-05    0.202801E-01   -0.315097E-01
   20    8    7  0.0000  0.0000   -0.131918E-01   -0.159254E+00    0.682710E-04    0.100730E-02   -0.444054E-04    0.667730E-03
   20    8    8  0.0000  0.0000    0.000000E+00    0.000000E+00    0.000000E+00    0.000000E+00   -0.121299E+00   -0.194289E-15

     Unfolding on the coarse grid
     dvanqq2      :     12.09s CPU      6.75s WALL (      10 calls)
     elphon_wrap  :    221.98s CPU    221.03s WALL (       1 calls)

     INITIALIZATION: 

     set_drhoc    :     89.35s CPU     89.59s WALL (      11 calls)
     init_vloc    :      0.37s CPU      0.30s WALL (       1 calls)
     init_us_1    :      0.50s CPU      0.30s WALL (       2 calls)
     newdq2       :     16.08s CPU      8.54s WALL (      40 calls)
     dvanqq2      :     12.09s CPU      6.75s WALL (      10 calls)



     Electron-Phonon interpolation
     ephwann      :      0.46s CPU      1.29s WALL (       1 calls)
     ep-interp    :      0.13s CPU      0.25s WALL (      20 calls)
     PH SELF-ENER :      0.00s CPU      0.00s WALL (      20 calls)

     Ham: step 1  :      0.00s CPU      0.00s WALL (       1 calls)
     Ham: step 2  :      0.00s CPU      0.02s WALL (       1 calls)
     ep: step 1   :      0.00s CPU      0.00s WALL (      60 calls)
     ep: step 2   :      0.22s CPU      0.98s WALL (       1 calls)
     DynW2B       :      0.00s CPU      0.00s WALL (      20 calls)
     HamW2B       :      0.00s CPU      0.29s WALL (      43 calls)
     ephW2Bp      :      0.01s CPU      0.07s WALL (      20 calls)
     ephW2B       :      0.00s CPU      0.00s WALL (      20 calls)
     vmewan2bloch :      0.00s CPU      0.02s WALL (      40 calls)
     vmewan2bloch :      0.00s CPU      0.02s WALL (      40 calls)


     Total program execution
     EPW          :   4m15.15s CPU   4m16.99s WALL

     ===============================================================================
     The functionality-dependent EPW.bib file was created with suggested citations. 
     Please consider citing the papers listed in EPW.bib.                           
     ===============================================================================
                                                                                    
