
     Program PWSCF v.6.7MaX starts on 11Mar2021 at 19:11: 9 

     This program is part of the open-source Quantum ESPRESSO suite
     for quantum simulation of materials; please cite
         "P. Giannozzi et al., J. Phys.:Condens. Matter 21 395502 (2009);
         "P. Giannozzi et al., J. Phys.:Condens. Matter 29 465901 (2017);
          URL http://www.quantum-espresso.org", 
     in publications or presentations arising from this work. More details at
     http://www.quantum-espresso.org/quote

     Parallel version (MPI & OpenMP), running on      56 processor cores
     Number of MPI processes:                28
     Threads/MPI process:                     2

     MPI processes distributed on     1 nodes
     K-points division:     npool     =      28
     Waiting for input...
     Reading input from standard input
Warning: card &IONS ignored
Warning: card / ignored
Warning: card &CELL ignored
Warning: card / ignored

     Current dimensions of program PWSCF are:
     Max number of different atomic species (ntypx) = 10
     Max number of k-points (npk) =  40000
     Max angular momentum in pseudopotentials (lmaxx) =  3
     Message from routine iosys:
     wrong startingpot: use default (2)

     Atomic positions and unit cell read from directory:
     ./outdir/carbyne.save/
     Atomic positions from file used, from input discarded
 
     file C.pbe-n-kjpaw_psl.1.0.0.UPF: wavefunction(s)  2S 2P renormalized

     Subspace diagonalization in iterative solution of the eigenvalue problem:
     a serial algorithm will be used

     Message from routine setup:
     using ibrav=0 with symmetry is DISCOURAGED, use correct ibrav instead
     Message from routine divide_et_impera:
     suboptimal parallelization: some nodes have no k-points
 
     G-vector sticks info
     --------------------
     sticks:   dense  smooth     PW     G-vecs:    dense   smooth      PW
     Sum       56853   22733   7713              1311607   331329   65661
 


     bravais-lattice index     =            0
     lattice parameter (alat)  =      37.7945  a.u.
     unit-cell volume          =    6945.7638 (a.u.)^3
     number of atoms/cell      =            2
     number of atomic types    =            1
     number of electrons       =         8.00
     number of Kohn-Sham states=            8
     kinetic-energy cutoff     =      50.0000  Ry
     charge density cutoff     =     500.0000  Ry
     Exchange-correlation= SLA  PW   PBX  PBC
                           (   1   4   3   4   0   0   0)

     celldm(1)=  37.794522  celldm(2)=   0.000000  celldm(3)=   0.000000
     celldm(4)=   0.000000  celldm(5)=   0.000000  celldm(6)=   0.000000

     crystal axes: (cart. coord. in units of alat)
               a(1) = (   1.000000   0.000000   0.000000 )  
               a(2) = (   0.000000   1.000000   0.000000 )  
               a(3) = (   0.000000   0.000000   0.128657 )  

     reciprocal axes: (cart. coord. in units 2 pi/alat)
               b(1) = (  1.000000  0.000000  0.000000 )  
               b(2) = (  0.000000  1.000000  0.000000 )  
               b(3) = (  0.000000  0.000000  7.772605 )  


     PseudoPot. # 1 for C  read from file:
     ./pseudopot/C.pbe-n-kjpaw_psl.1.0.0.UPF
     MD5 check sum: 6fec8efd722f5d988670a8dc528584a2
     Pseudo is Projector augmented-wave + core cor, Zval =  4.0
     Generated using "atomic" code by A. Dal Corso  v.5.1.2
     Shape of augmentation charge: PSQ
     Using radial grid of 1073 points,  4 beta functions with: 
                l(1) =   0
                l(2) =   0
                l(3) =   1
                l(4) =   1
     Q(r) pseudized with 0 coefficients 


     atomic species   valence    mass     pseudopotential
        C              4.00    12.01070     C ( 1.00)

      8 Sym. Ops. (no inversion) found


                                    s                        frac. trans.

      isym =  1     identity                                     

 cryst.   s( 1) = (     1          0          0      )
                  (     0          1          0      )
                  (     0          0          1      )

 cart.    s( 1) = (  1.0000000  0.0000000  0.0000000 )
                  (  0.0000000  1.0000000  0.0000000 )
                  (  0.0000000  0.0000000  1.0000000 )


      isym =  2     180 deg rotation - cart. axis [0,0,1]        

 cryst.   s( 2) = (    -1          0          0      )
                  (     0         -1          0      )
                  (     0          0          1      )

 cart.    s( 2) = ( -1.0000000  0.0000000  0.0000000 )
                  (  0.0000000 -1.0000000  0.0000000 )
                  (  0.0000000  0.0000000  1.0000000 )


      isym =  3      90 deg rotation - cart. axis [0,0,-1]       

 cryst.   s( 3) = (     0         -1          0      )
                  (     1          0          0      )
                  (     0          0          1      )

 cart.    s( 3) = (  0.0000000  1.0000000  0.0000000 )
                  ( -1.0000000  0.0000000  0.0000000 )
                  (  0.0000000  0.0000000  1.0000000 )


      isym =  4      90 deg rotation - cart. axis [0,0,1]        

 cryst.   s( 4) = (     0          1          0      )
                  (    -1          0          0      )
                  (     0          0          1      )

 cart.    s( 4) = (  0.0000000 -1.0000000  0.0000000 )
                  (  1.0000000  0.0000000  0.0000000 )
                  (  0.0000000  0.0000000  1.0000000 )


      isym =  5     inv. 180 deg rotation - cart. axis [0,1,0]   

 cryst.   s( 5) = (     1          0          0      )
                  (     0         -1          0      )
                  (     0          0          1      )

 cart.    s( 5) = (  1.0000000  0.0000000  0.0000000 )
                  (  0.0000000 -1.0000000  0.0000000 )
                  (  0.0000000  0.0000000  1.0000000 )


      isym =  6     inv. 180 deg rotation - cart. axis [1,0,0]   

 cryst.   s( 6) = (    -1          0          0      )
                  (     0          1          0      )
                  (     0          0          1      )

 cart.    s( 6) = ( -1.0000000  0.0000000  0.0000000 )
                  (  0.0000000  1.0000000  0.0000000 )
                  (  0.0000000  0.0000000  1.0000000 )


      isym =  7     inv. 180 deg rotation - cart. axis [1,1,0]   

 cryst.   s( 7) = (     0         -1          0      )
                  (    -1          0          0      )
                  (     0          0          1      )

 cart.    s( 7) = (  0.0000000 -1.0000000  0.0000000 )
                  ( -1.0000000  0.0000000  0.0000000 )
                  (  0.0000000  0.0000000  1.0000000 )


      isym =  8     inv. 180 deg rotation - cart. axis [1,-1,0]  

 cryst.   s( 8) = (     0          1          0      )
                  (     1          0          0      )
                  (     0          0          1      )

 cart.    s( 8) = (  0.0000000  1.0000000  0.0000000 )
                  (  1.0000000  0.0000000  0.0000000 )
                  (  0.0000000  0.0000000  1.0000000 )


   Cartesian axes

     site n.     atom                  positions (alat units)
         1           C   tau(   1) = (   0.5000000   0.5000000   0.0000000  )
         2           C   tau(   2) = (   0.5000000   0.5000000   0.0621126  )

   Crystallographic axes

     site n.     atom                  positions (cryst. coord.)
         1           C   tau(   1) = (  0.5000000  0.5000000  0.0000000  )
         2           C   tau(   2) = (  0.5000000  0.5000000  0.4827771  )

     number of k points=    10  Marzari-Vanderbilt smearing, width (Ry)=  0.0500
                       cart. coord. in units 2pi/alat
        k(    1) = (   0.0000000   0.0000000   0.0000000), wk =   0.2000000
        k(    2) = (   0.0000000   0.0000000   0.7772605), wk =   0.2000000
        k(    3) = (   0.0000000   0.0000000   1.5545209), wk =   0.2000000
        k(    4) = (   0.0000000   0.0000000   2.3317814), wk =   0.2000000
        k(    5) = (   0.0000000   0.0000000   3.1090419), wk =   0.2000000
        k(    6) = (   0.0000000   0.0000000   3.8863023), wk =   0.2000000
        k(    7) = (   0.0000000   0.0000000   4.6635628), wk =   0.2000000
        k(    8) = (   0.0000000   0.0000000   5.4408233), wk =   0.2000000
        k(    9) = (   0.0000000   0.0000000   6.2180837), wk =   0.2000000
        k(   10) = (   0.0000000   0.0000000   6.9953442), wk =   0.2000000

                       cryst. coord.
        k(    1) = (   0.0000000   0.0000000   0.0000000), wk =   0.2000000
        k(    2) = (   0.0000000   0.0000000   0.1000000), wk =   0.2000000
        k(    3) = (   0.0000000   0.0000000   0.2000000), wk =   0.2000000
        k(    4) = (   0.0000000   0.0000000   0.3000000), wk =   0.2000000
        k(    5) = (   0.0000000   0.0000000   0.4000000), wk =   0.2000000
        k(    6) = (   0.0000000   0.0000000   0.5000000), wk =   0.2000000
        k(    7) = (   0.0000000   0.0000000   0.6000000), wk =   0.2000000
        k(    8) = (   0.0000000   0.0000000   0.7000000), wk =   0.2000000
        k(    9) = (   0.0000000   0.0000000   0.8000000), wk =   0.2000000
        k(   10) = (   0.0000000   0.0000000   0.9000000), wk =   0.2000000

     Dense  grid:  1311607 G-vectors     FFT dimensions: ( 270, 270,  36)

     Smooth grid:   331329 G-vectors     FFT dimensions: ( 180, 180,  24)

     Dynamical RAM for                 wfc:       5.06 MB

     Dynamical RAM for     wfc (w. buffer):       5.06 MB

     Dynamical RAM for           str. fact:      20.01 MB

     Dynamical RAM for           local pot:       0.00 MB

     Dynamical RAM for          nlocal pot:      10.12 MB

     Dynamical RAM for                qrad:       0.51 MB

     Dynamical RAM for          rho,v,vnew:     120.11 MB

     Dynamical RAM for           G-vectors:      77.58 MB

     Dynamical RAM for          h,s,v(r/c):       0.01 MB

     Dynamical RAM for          <psi|beta>:       0.00 MB

     Dynamical RAM for                 psi:      10.12 MB

     Dynamical RAM for                hpsi:      10.12 MB

     Dynamical RAM for                spsi:      10.12 MB

     Dynamical RAM for      wfcinit/wfcrot:      10.13 MB

     Dynamical RAM for           addusdens:      51.46 MB

     Estimated static dynamical RAM per process >     373.54 MB

     Estimated max dynamical RAM per process >     425.00 MB

     Estimated total dynamical RAM >      11.62 GB

     The potential is recalculated from file :
     ./outdir/carbyne.save/charge-density


     negative rho (up, down):  5.481E-04 0.000E+00
     Starting wfcs are    8 randomized atomic wfcs
     Checking if some PAW data can be deallocated... 

     Band Structure Calculation
     Davidson diagonalization with overlap

     Computing kpt #:     1  of     1 on this pool
     total cpu time spent up to now is       17.0 secs

     ethr =  1.25E-11,  avg # of iterations = 76.8

     total cpu time spent up to now is       17.4 secs

     End of band structure calculation

          k = 0.0000 0.0000 0.0000 ( 41667 PWs)   bands (ev):

   -21.2256 -14.0150 -10.2879 -10.2879  -0.5141   0.0855   0.1861   0.1861

     occupation numbers 
     1.0000   1.0000   1.0000   1.0000   0.0000   0.0000   0.0000   0.0000

          k = 0.0000 0.0000 0.7773 ( 41611 PWs)   bands (ev):

   -21.0975 -14.2820 -10.0741 -10.0741  -0.2972   0.3112   0.4128   0.4128

     occupation numbers 
     1.0000   1.0000   1.0000   1.0000   0.0000   0.0000   0.0000   0.0000

          k = 0.0000 0.0000 1.5545 ( 41579 PWs)   bands (ev):

   -20.7183 -15.0055  -9.4344  -9.4344   0.3507   0.9880   1.0924   1.0924

     occupation numbers 
     1.0000   1.0000   1.0000   1.0000   0.0000   0.0000   0.0000   0.0000

          k = 0.0000 0.0000 2.3318 ( 41435 PWs)   bands (ev):

   -20.1041 -16.0120  -8.3751  -8.3751  -0.1782  -0.1782   1.4189   2.1157

     occupation numbers 
     1.0000   1.0000   1.0000   1.0000   0.0000   0.0000   0.0000   0.0000

          k = 0.0000 0.0000 3.1090 ( 41327 PWs)   bands (ev):

   -19.2881 -17.1230  -6.9145  -6.9145  -2.7083  -2.7083   2.8741   3.6928

     occupation numbers 
     1.0000   1.0000   1.0025   1.0025   0.0000   0.0000   0.0000   0.0000

          k = 0.0000 0.0000 3.8863 ( 41178 PWs)   bands (ev):

   -18.5082 -18.0111  -5.4054  -5.4054  -4.5852  -4.5852   4.4700   4.7403

     occupation numbers 
     1.0000   1.0000   0.8730   0.8730   0.1221   0.1221   0.0000   0.0000

          k = 0.0000 0.0000 4.6636 ( 41327 PWs)   bands (ev):

   -19.2881 -17.1230  -6.9145  -6.9145  -2.7083  -2.7083   2.8741   3.6928

     occupation numbers 
     1.0000   1.0000   1.0025   1.0025   0.0000   0.0000   0.0000   0.0000

          k = 0.0000 0.0000 5.4408 ( 41435 PWs)   bands (ev):

   -20.1041 -16.0120  -8.3751  -8.3751  -0.1782  -0.1782   1.4189   2.1157

     occupation numbers 
     1.0000   1.0000   1.0000   1.0000   0.0000   0.0000   0.0000   0.0000

          k = 0.0000 0.0000 6.2181 ( 41579 PWs)   bands (ev):

   -20.7183 -15.0055  -9.4344  -9.4344   0.3507   0.9880   1.0924   1.0924

     occupation numbers 
     1.0000   1.0000   1.0000   1.0000   0.0000   0.0000   0.0000   0.0000

          k = 0.0000 0.0000 6.9953 ( 41611 PWs)   bands (ev):

   -21.0975 -14.2820 -10.0741 -10.0741  -0.2972   0.3112   0.4128   0.4128

     occupation numbers 
     1.0000   1.0000   1.0000   1.0000   0.0000   0.0000   0.0000   0.0000

     the Fermi energy is    -4.9547 ev
     (compare with:    -4.9547 eV, computed in scf)

     Writing output data file ./outdir/carbyne.save/
 
     init_run     :      4.44s CPU      4.92s WALL (       1 calls)
     electrons    :     19.78s CPU     11.00s WALL (       1 calls)

     Called by init_run:
     wfcinit      :      0.00s CPU      0.00s WALL (       1 calls)
     wfcinit:atom :      0.01s CPU      0.01s WALL (       1 calls)
     wfcinit:wfcr :      0.48s CPU      0.91s WALL (       1 calls)
     potinit      :      1.96s CPU      2.31s WALL (       1 calls)
     hinit0       :      1.46s CPU      1.48s WALL (       1 calls)

     Called by electrons:
     c_bands      :     19.78s CPU     10.95s WALL (       1 calls)
     v_of_rho     :      1.59s CPU      1.55s WALL (       1 calls)
     v_h          :      0.16s CPU      0.12s WALL (       1 calls)
     v_xc         :      1.42s CPU      1.43s WALL (       1 calls)
     newd         :      0.21s CPU      0.23s WALL (       1 calls)
     PAW_pot      :      0.10s CPU      0.11s WALL (       1 calls)

     Called by c_bands:
     init_us_2    :      0.02s CPU      0.03s WALL (       1 calls)
     cegterg      :     18.76s CPU      9.52s WALL (       5 calls)

     Called by sum_band:

     Called by *egterg:
     cdiaghg      :      0.07s CPU      0.58s WALL (      85 calls)
     cegterg:over :      1.61s CPU      0.81s WALL (      84 calls)
     cegterg:upda :      0.55s CPU      0.28s WALL (      84 calls)
     cegterg:last :      0.92s CPU      0.47s WALL (      44 calls)
     h_psi        :     15.21s CPU      7.82s WALL (      90 calls)
     s_psi        :      0.40s CPU      0.20s WALL (      90 calls)
     g_psi        :      0.11s CPU      0.06s WALL (      84 calls)

     Called by h_psi:
     h_psi:calbec :      0.43s CPU      0.35s WALL (      90 calls)
     vloc_psi     :     14.24s CPU      7.19s WALL (      90 calls)
     add_vuspsi   :      0.42s CPU      0.22s WALL (      90 calls)

     General routines
     calbec       :      0.43s CPU      0.35s WALL (      90 calls)
     fft          :      0.62s CPU      1.11s WALL (      13 calls)
     ffts         :      0.01s CPU      0.14s WALL (       1 calls)
     fftw         :     10.32s CPU      5.22s WALL (     730 calls)
     interpolate  :      0.08s CPU      0.23s WALL (       1 calls)
     davcio       :      0.03s CPU      0.03s WALL (       2 calls)
 
     Parallel routines

     PAW routines
     PAW_pot      :      0.10s CPU      0.11s WALL (       1 calls)
 
     PWSCF        :     24.51s CPU     17.72s WALL

 
   This run was terminated on:  19:11:26  11Mar2021            

=------------------------------------------------------------------------------=
   JOB DONE.
=------------------------------------------------------------------------------=
