
     Program PHONON v.6.7MaX starts on 11Mar2021 at 11:25:49 

     This program is part of the open-source Quantum ESPRESSO suite
     for quantum simulation of materials; please cite
         "P. Giannozzi et al., J. Phys.:Condens. Matter 21 395502 (2009);
         "P. Giannozzi et al., J. Phys.:Condens. Matter 29 465901 (2017);
          URL http://www.quantum-espresso.org", 
     in publications or presentations arising from this work. More details at
     http://www.quantum-espresso.org/quote

     Parallel version (MPI & OpenMP), running on      56 processor cores
     Number of MPI processes:                28
     Threads/MPI process:                     2

     MPI processes distributed on     1 nodes
     K-points division:     npool     =      28
     Waiting for input...
     Reading input from standard input

     Reading xml data from directory:

     ./outdir/carbyne.save/
     file C.pbe-n-kjpaw_psl.1.0.0.UPF: wavefunction(s)  2S 2P renormalized

     IMPORTANT: XC functional enforced from input :
     Exchange-correlation= PBE
                           (   1   4   3   4   0   0   0)
     Any further DFT definition will be discarded
     Please, verify this is what you really want

 
     G-vector sticks info
     --------------------
     sticks:   dense  smooth     PW     G-vecs:    dense   smooth      PW
     Sum       56853   22733   6777              1311607   331329   53555
 

     negative rho (up, down):  5.481E-04 0.000E+00
     Message from routine divide_et_impera:
     suboptimal parallelization: some nodes have no k-points
     Reading collected, re-writing distributed wavefunctions


     Dynamical matrices for ( 1, 1,10)  uniform grid of q-points
     (   6 q-points):
       N         xq(1)         xq(2)         xq(3) 
       1   0.000000000   0.000000000   0.000000000
       2   0.000000000   0.000000000   0.777260468
       3   0.000000000   0.000000000   1.554520936
       4   0.000000000   0.000000000   2.331781403
       5   0.000000000   0.000000000   3.109041871
       6   0.000000000   0.000000000  -3.886302339

     Saving dvscf to file. Distribute only q points, not irreducible represetations.

     Calculation of q =    0.0000000   0.0000000   0.0000000

     Phonon of carbyne on a uniform q-grid                                      

     bravais-lattice index     =            0
     lattice parameter (alat)  =      37.7945  a.u.
     unit-cell volume          =    6945.7638 (a.u.)^3
     number of atoms/cell      =            2
     number of atomic types    =            1
     kinetic-energy cut-off    =      50.0000  Ry
     charge density cut-off    =     500.0000  Ry
     convergence threshold     =      1.0E-14
     beta                      =       0.7000
     number of iterations used =            4
     Exchange-correlation= PBE
                           (   1   4   3   4   0   0   0)


     celldm(1)=   37.79452  celldm(2)=    0.00000  celldm(3)=    0.00000
     celldm(4)=    0.00000  celldm(5)=    0.00000  celldm(6)=    0.00000

     crystal axes: (cart. coord. in units of alat)
               a(1) = (  1.0000  0.0000  0.0000 )  
               a(2) = (  0.0000  1.0000  0.0000 )  
               a(3) = (  0.0000  0.0000  0.1287 )  

     reciprocal axes: (cart. coord. in units 2 pi/alat)
               b(1) = (  1.0000  0.0000  0.0000 )  
               b(2) = (  0.0000  1.0000  0.0000 )  
               b(3) = (  0.0000  0.0000  7.7726 )  


     Atoms inside the unit cell: 

     Cartesian axes

     site n.  atom      mass           positions (alat units)
        1     C   12.0107   tau(    1) = (    0.50000    0.50000    0.00000  )
        2     C   12.0107   tau(    2) = (    0.50000    0.50000    0.06211  )

     Computing dynamical matrix for 
                    q = (   0.0000000   0.0000000   0.0000000 )
 
      9 Sym.Ops. (with q -> -q+G )


     G cutoff =18091.2258  (1311607 G-vectors)     FFT grid: (270,270, 36)
     G cutoff = 7236.4903  ( 331329 G-vectors)  smooth grid: (180,180, 24)

     number of k points=     6  Marzari-Vanderbilt smearing, width (Ry)=  0.0500

     PseudoPot. # 1 for C  read from file:
     ./pseudopot/C.pbe-n-kjpaw_psl.1.0.0.UPF
     MD5 check sum: 6fec8efd722f5d988670a8dc528584a2
     Pseudo is Projector augmented-wave + core cor, Zval =  4.0
     Generated using "atomic" code by A. Dal Corso  v.5.1.2
     Shape of augmentation charge: PSQ
     Using radial grid of 1073 points,  4 beta functions with: 
                l(1) =   0
                l(2) =   0
                l(3) =   1
                l(4) =   1
     Q(r) pseudized with 0 coefficients 


     Mode symmetry, C_4v (4mm)  point group:


     Atomic displacements:
     There are    4 irreducible representations

     Representation     1      1 modes -  To be done

     Representation     2      1 modes -  To be done

     Representation     3      2 modes -  To be done

     Representation     4      2 modes -  To be done



     Alpha used in Ewald sum =   2.8000

     negative rho (up, down):  5.481E-04 0.000E+00
     PHONON       :   2m 4.85s CPU   1m49.70s WALL



     Representation #   1 mode #   1

     Self-consistent Calculation
 
     Pert. #  1: Fermi energy shift (Ry) =     2.2318E-01     0.0000E+00

      iter #   1 total cpu time :   122.4 secs   av.it.:   6.0
      thresh= 1.000E-02 alpha_mix =  0.700 |ddv_scf|^2 =  1.156E-08
 
     Pert. #  1: Fermi energy shift (Ry) =    -3.1247E-02     0.0000E+00

      iter #   2 total cpu time :   134.3 secs   av.it.:  12.0
      thresh= 1.075E-05 alpha_mix =  0.700 |ddv_scf|^2 =  1.109E-09
 
     Pert. #  1: Fermi energy shift (Ry) =     1.0604E-01     0.0000E+00

      iter #   3 total cpu time :   146.6 secs   av.it.:  12.2
      thresh= 3.331E-06 alpha_mix =  0.700 |ddv_scf|^2 =  5.226E-10
 
     Pert. #  1: Fermi energy shift (Ry) =     7.4750E-02     0.0000E+00

      iter #   4 total cpu time :   159.0 secs   av.it.:  11.8
      thresh= 2.286E-06 alpha_mix =  0.700 |ddv_scf|^2 =  1.524E-10
 
     Pert. #  1: Fermi energy shift (Ry) =     5.4536E-02     0.0000E+00

      iter #   5 total cpu time :   172.5 secs   av.it.:  11.8
      thresh= 1.234E-06 alpha_mix =  0.700 |ddv_scf|^2 =  7.826E-13
 
     Pert. #  1: Fermi energy shift (Ry) =     5.6205E-02     0.0000E+00

      iter #   6 total cpu time :   183.1 secs   av.it.:  12.3
      thresh= 8.847E-08 alpha_mix =  0.700 |ddv_scf|^2 =  5.820E-15

     End of self-consistent calculation

     Convergence has been achieved 


     Representation #   2 mode #   2

     Self-consistent Calculation
 
     Pert. #  1: Fermi energy shift (Ry) =    -2.2318E-01     0.0000E+00

      iter #   1 total cpu time :   201.1 secs   av.it.:   6.0
      thresh= 1.000E-02 alpha_mix =  0.700 |ddv_scf|^2 =  1.314E-08
 
     Pert. #  1: Fermi energy shift (Ry) =     3.1241E-02     0.0000E+00

      iter #   2 total cpu time :   213.0 secs   av.it.:  11.8
      thresh= 1.146E-05 alpha_mix =  0.700 |ddv_scf|^2 =  1.344E-09
 
     Pert. #  1: Fermi energy shift (Ry) =    -1.1153E-01     0.0000E+00

      iter #   3 total cpu time :   225.7 secs   av.it.:  12.2
      thresh= 3.667E-06 alpha_mix =  0.700 |ddv_scf|^2 =  4.802E-10
 
     Pert. #  1: Fermi energy shift (Ry) =    -7.3047E-02     0.0000E+00

      iter #   4 total cpu time :   238.5 secs   av.it.:  12.3
      thresh= 2.191E-06 alpha_mix =  0.700 |ddv_scf|^2 =  1.948E-10
 
     Pert. #  1: Fermi energy shift (Ry) =    -5.4340E-02     0.0000E+00

      iter #   5 total cpu time :   251.7 secs   av.it.:  11.7
      thresh= 1.396E-06 alpha_mix =  0.700 |ddv_scf|^2 =  2.573E-13
 
     Pert. #  1: Fermi energy shift (Ry) =    -5.5983E-02     0.0000E+00

      iter #   6 total cpu time :   262.2 secs   av.it.:  11.8
      thresh= 5.073E-08 alpha_mix =  0.700 |ddv_scf|^2 =  8.189E-15

     End of self-consistent calculation

     Convergence has been achieved 


     Representation #   3 modes #   3   4

     Self-consistent Calculation
 
     Pert. #  1: Fermi energy shift (Ry) =     0.0000E+00     0.0000E+00
     Pert. #  2: Fermi energy shift (Ry) =     0.0000E+00     0.0000E+00

      iter #   1 total cpu time :   285.9 secs   av.it.:   5.8
      thresh= 1.000E-02 alpha_mix =  0.700 |ddv_scf|^2 =  9.353E-09
 
     Pert. #  1: Fermi energy shift (Ry) =     0.0000E+00     0.0000E+00
     Pert. #  2: Fermi energy shift (Ry) =     0.0000E+00     0.0000E+00

      iter #   2 total cpu time :   306.8 secs   av.it.:  12.2
      thresh= 9.671E-06 alpha_mix =  0.700 |ddv_scf|^2 =  1.011E-09
 
     Pert. #  1: Fermi energy shift (Ry) =     0.0000E+00     0.0000E+00
     Pert. #  2: Fermi energy shift (Ry) =     0.0000E+00     0.0000E+00

      iter #   3 total cpu time :   327.7 secs   av.it.:  12.2
      thresh= 3.180E-06 alpha_mix =  0.700 |ddv_scf|^2 =  8.226E-11
 
     Pert. #  1: Fermi energy shift (Ry) =     0.0000E+00     0.0000E+00
     Pert. #  2: Fermi energy shift (Ry) =     0.0000E+00     0.0000E+00

      iter #   4 total cpu time :   350.2 secs   av.it.:  12.0
      thresh= 9.069E-07 alpha_mix =  0.700 |ddv_scf|^2 =  3.811E-14
 
     Pert. #  1: Fermi energy shift (Ry) =     0.0000E+00     0.0000E+00
     Pert. #  2: Fermi energy shift (Ry) =     0.0000E+00     0.0000E+00

      iter #   5 total cpu time :   368.2 secs   av.it.:  12.3
      thresh= 1.952E-08 alpha_mix =  0.700 |ddv_scf|^2 =  4.856E-16

     End of self-consistent calculation

     Convergence has been achieved 


     Representation #   4 modes #   5   6

     Self-consistent Calculation
 
     Pert. #  1: Fermi energy shift (Ry) =     0.0000E+00     0.0000E+00
     Pert. #  2: Fermi energy shift (Ry) =     0.0000E+00     0.0000E+00

      iter #   1 total cpu time :   395.8 secs   av.it.:   5.8
      thresh= 1.000E-02 alpha_mix =  0.700 |ddv_scf|^2 =  8.390E-09
 
     Pert. #  1: Fermi energy shift (Ry) =     0.0000E+00     0.0000E+00
     Pert. #  2: Fermi energy shift (Ry) =     0.0000E+00     0.0000E+00

      iter #   2 total cpu time :   416.8 secs   av.it.:  12.2
      thresh= 9.160E-06 alpha_mix =  0.700 |ddv_scf|^2 =  1.496E-09
 
     Pert. #  1: Fermi energy shift (Ry) =     0.0000E+00     0.0000E+00
     Pert. #  2: Fermi energy shift (Ry) =     0.0000E+00     0.0000E+00

      iter #   3 total cpu time :   438.4 secs   av.it.:  12.2
      thresh= 3.868E-06 alpha_mix =  0.700 |ddv_scf|^2 =  8.770E-11
 
     Pert. #  1: Fermi energy shift (Ry) =     0.0000E+00     0.0000E+00
     Pert. #  2: Fermi energy shift (Ry) =     0.0000E+00     0.0000E+00

      iter #   4 total cpu time :   460.8 secs   av.it.:  12.0
      thresh= 9.365E-07 alpha_mix =  0.700 |ddv_scf|^2 =  1.266E-14
 
     Pert. #  1: Fermi energy shift (Ry) =     0.0000E+00     0.0000E+00
     Pert. #  2: Fermi energy shift (Ry) =     0.0000E+00     0.0000E+00

      iter #   5 total cpu time :   478.8 secs   av.it.:  12.2
      thresh= 1.125E-08 alpha_mix =  0.700 |ddv_scf|^2 =  2.953E-16

     End of self-consistent calculation

     Convergence has been achieved 
 
     Number of q in the star =    1
     List of q in the star:
          1   0.000000000   0.000000000   0.000000000

     Diagonalizing the dynamical matrix

     q = (    0.000000000   0.000000000   0.000000000 ) 

 **************************************************************************
     freq (    1) =      -0.575304 [THz] =     -19.190088 [cm-1]
     freq (    2) =       1.851280 [THz] =      61.752062 [cm-1]
     freq (    3) =       1.851280 [THz] =      61.752062 [cm-1]
     freq (    4) =      14.656877 [THz] =     488.900801 [cm-1]
     freq (    5) =      14.656877 [THz] =     488.900801 [cm-1]
     freq (    6) =      44.167355 [THz] =    1473.264378 [cm-1]
 **************************************************************************

     Mode symmetry, C_4v (4mm)  point group:

     freq (   1-   1) =        -19.2  [cm-1]   --> A_1  G_1 D_1    I+R
     freq (   2-   3) =         61.8  [cm-1]   --> E    G_5 D_5    I+R
     freq (   4-   5) =        488.9  [cm-1]   --> E    G_5 D_5    I+R
     freq (   6-   6) =       1473.3  [cm-1]   --> A_1  G_1 D_1    I+R
     electron-phonon interaction  ...

     Gaussian Broadening:   0.005 Ry, ngauss=   0
     DOS =  0.000000 states/spin/Ry/Unit Cell at Ef= -4.962847 eV
     lambda(    1)=  0.0000   gamma=    0.00 GHz
     lambda(    2)=  0.0000   gamma=    0.00 GHz
     lambda(    3)=  0.0000   gamma=    0.00 GHz
     lambda(    4)=  0.0000   gamma=    0.00 GHz
     lambda(    5)=  0.0000   gamma=    0.00 GHz
     lambda(    6)=  0.0000   gamma=    0.00 GHz
     Gaussian Broadening:   0.010 Ry, ngauss=   0
     DOS =  0.002559 states/spin/Ry/Unit Cell at Ef= -4.995291 eV
     lambda(    1)=  0.0000   gamma=    0.00 GHz
     lambda(    2)=  0.0000   gamma=    0.00 GHz
     lambda(    3)=  0.0000   gamma=    0.00 GHz
     lambda(    4)=  0.0000   gamma=    0.00 GHz
     lambda(    5)=  0.0000   gamma=    0.00 GHz
     lambda(    6)=  0.0010   gamma=    0.00 GHz
     Gaussian Broadening:   0.015 Ry, ngauss=   0
     DOS =  0.265398 states/spin/Ry/Unit Cell at Ef= -4.995291 eV
     lambda(    1)=  0.0000   gamma=    0.11 GHz
     lambda(    2)=  0.0000   gamma=    0.00 GHz
     lambda(    3)=  0.0000   gamma=    0.00 GHz
     lambda(    4)=  0.0000   gamma=    0.00 GHz
     lambda(    5)=  0.0000   gamma=    0.00 GHz
     lambda(    6)=  0.1015   gamma=   50.20 GHz
     Gaussian Broadening:   0.020 Ry, ngauss=   0
     DOS =  1.164430 states/spin/Ry/Unit Cell at Ef= -4.995291 eV
     lambda(    1)=  0.0000   gamma=    2.03 GHz
     lambda(    2)=  0.0000   gamma=    0.00 GHz
     lambda(    3)=  0.0000   gamma=    0.00 GHz
     lambda(    4)=  0.0000   gamma=    0.00 GHz
     lambda(    5)=  0.0000   gamma=    0.00 GHz
     lambda(    6)=  0.4455   gamma=  966.32 GHz
     Gaussian Broadening:   0.025 Ry, ngauss=   0
     DOS =  2.110019 states/spin/Ry/Unit Cell at Ef= -4.995291 eV
     lambda(    1)=  0.0000   gamma=    6.66 GHz
     lambda(    2)=  0.0000   gamma=    0.00 GHz
     lambda(    3)=  0.0000   gamma=    0.00 GHz
     lambda(    4)=  0.0000   gamma=    0.00 GHz
     lambda(    5)=  0.0000   gamma=    0.00 GHz
     lambda(    6)=  0.8072   gamma= 3172.99 GHz
     Gaussian Broadening:   0.030 Ry, ngauss=   0
     DOS =  2.741510 states/spin/Ry/Unit Cell at Ef= -4.995291 eV
     lambda(    1)=  0.0000   gamma=   11.25 GHz
     lambda(    2)=  0.0000   gamma=    0.00 GHz
     lambda(    3)=  0.0000   gamma=    0.00 GHz
     lambda(    4)=  0.0000   gamma=    0.00 GHz
     lambda(    5)=  0.0000   gamma=    0.00 GHz
     lambda(    6)=  1.0488   gamma= 5356.43 GHz
     Gaussian Broadening:   0.035 Ry, ngauss=   0
     DOS =  3.071471 states/spin/Ry/Unit Cell at Ef= -4.995291 eV
     lambda(    1)=  0.0000   gamma=   14.12 GHz
     lambda(    2)=  0.0000   gamma=    0.00 GHz
     lambda(    3)=  0.0000   gamma=    0.00 GHz
     lambda(    4)=  0.0000   gamma=    0.00 GHz
     lambda(    5)=  0.0000   gamma=    0.00 GHz
     lambda(    6)=  1.1751   gamma= 6723.39 GHz
     Gaussian Broadening:   0.040 Ry, ngauss=   0
     DOS =  3.197737 states/spin/Ry/Unit Cell at Ef= -4.995290 eV
     lambda(    1)=  0.0000   gamma=   15.30 GHz
     lambda(    2)=  0.0000   gamma=    0.00 GHz
     lambda(    3)=  0.0000   gamma=    0.00 GHz
     lambda(    4)=  0.0000   gamma=    0.00 GHz
     lambda(    5)=  0.0000   gamma=    0.00 GHz
     lambda(    6)=  1.2234   gamma= 7287.45 GHz
     Gaussian Broadening:   0.045 Ry, ngauss=   0
     DOS =  3.202410 states/spin/Ry/Unit Cell at Ef= -4.995283 eV
     lambda(    1)=  0.0000   gamma=   15.34 GHz
     lambda(    2)=  0.0000   gamma=    0.00 GHz
     lambda(    3)=  0.0000   gamma=    0.00 GHz
     lambda(    4)=  0.0000   gamma=    0.00 GHz
     lambda(    5)=  0.0000   gamma=    0.00 GHz
     lambda(    6)=  1.2250   gamma= 7307.74 GHz
     Gaussian Broadening:   0.050 Ry, ngauss=   0
     DOS =  3.139975 states/spin/Ry/Unit Cell at Ef= -4.995235 eV
     lambda(    1)=  0.0000   gamma=   14.74 GHz
     lambda(    2)=  0.0000   gamma=    0.00 GHz
     lambda(    3)=  0.0000   gamma=    0.00 GHz
     lambda(    4)=  0.0000   gamma=    0.00 GHz
     lambda(    5)=  0.0000   gamma=    0.00 GHz
     lambda(    6)=  1.2002   gamma= 7020.08 GHz
 
 
     Number of q in the star =    1
     List of q in the star:
          1   0.000000000   0.000000000   0.000000000

     Calculation of q =    0.0000000   0.0000000   0.7772605

     Subspace diagonalization in iterative solution of the eigenvalue problem:
     a serial algorithm will be used

     Message from routine divide_et_impera:
     suboptimal parallelization: some nodes have no k-points
 
     G-vector sticks info
     --------------------
     sticks:   dense  smooth     PW     G-vecs:    dense   smooth      PW
     Sum       56853   22733   6777              1311607   331329   53555
 

     Title: 
     Phonon of carbyne on a uniform q-grid                                      


     bravais-lattice index     =            0
     lattice parameter (alat)  =      37.7945  a.u.
     unit-cell volume          =    6945.7638 (a.u.)^3
     number of atoms/cell      =            2
     number of atomic types    =            1
     number of electrons       =         8.00
     number of Kohn-Sham states=            8
     kinetic-energy cutoff     =      50.0000  Ry
     charge density cutoff     =     500.0000  Ry
     Exchange-correlation= PBE
                           (   1   4   3   4   0   0   0)

     celldm(1)=  37.794522  celldm(2)=   0.000000  celldm(3)=   0.000000
     celldm(4)=   0.000000  celldm(5)=   0.000000  celldm(6)=   0.000000

     crystal axes: (cart. coord. in units of alat)
               a(1) = (   1.000000   0.000000   0.000000 )  
               a(2) = (   0.000000   1.000000   0.000000 )  
               a(3) = (   0.000000   0.000000   0.128657 )  

     reciprocal axes: (cart. coord. in units 2 pi/alat)
               b(1) = (  1.000000  0.000000  0.000000 )  
               b(2) = (  0.000000  1.000000  0.000000 )  
               b(3) = (  0.000000  0.000000  7.772605 )  


     PseudoPot. # 1 for C  read from file:
     ./pseudopot/C.pbe-n-kjpaw_psl.1.0.0.UPF
     MD5 check sum: 6fec8efd722f5d988670a8dc528584a2
     Pseudo is Projector augmented-wave + core cor, Zval =  4.0
     Generated using "atomic" code by A. Dal Corso  v.5.1.2
     Shape of augmentation charge: PSQ
     Using radial grid of 1073 points,  4 beta functions with: 
                l(1) =   0
                l(2) =   0
                l(3) =   1
                l(4) =   1
     Q(r) pseudized with 0 coefficients 


     atomic species   valence    mass     pseudopotential
        C              4.00    12.01070     C ( 1.00)

      8 Sym. Ops. (no inversion) found



   Cartesian axes

     site n.     atom                  positions (alat units)
         1           C   tau(   1) = (   0.5000000   0.5000000   0.0000000  )
         2           C   tau(   2) = (   0.5000000   0.5000000   0.0621126  )

     number of k points=    20  Marzari-Vanderbilt smearing, width (Ry)=  0.0500
                       cart. coord. in units 2pi/alat
        k(    1) = (   0.0000000   0.0000000   0.0000000), wk =   0.2000000
        k(    2) = (   0.0000000   0.0000000   0.7772605), wk =   0.0000000
        k(    3) = (   0.0000000   0.0000000   0.7772605), wk =   0.2000000
        k(    4) = (   0.0000000   0.0000000   1.5545209), wk =   0.0000000
        k(    5) = (   0.0000000   0.0000000   1.5545209), wk =   0.2000000
        k(    6) = (   0.0000000   0.0000000   2.3317814), wk =   0.0000000
        k(    7) = (   0.0000000   0.0000000   2.3317814), wk =   0.2000000
        k(    8) = (   0.0000000   0.0000000   3.1090419), wk =   0.0000000
        k(    9) = (   0.0000000   0.0000000   3.1090419), wk =   0.2000000
        k(   10) = (   0.0000000   0.0000000   3.8863023), wk =   0.0000000
        k(   11) = (   0.0000000   0.0000000  -3.8863023), wk =   0.2000000
        k(   12) = (   0.0000000   0.0000000  -3.1090419), wk =   0.0000000
        k(   13) = (   0.0000000   0.0000000  -0.7772605), wk =   0.2000000
        k(   14) = (   0.0000000   0.0000000  -0.0000000), wk =   0.0000000
        k(   15) = (   0.0000000   0.0000000  -1.5545209), wk =   0.2000000
        k(   16) = (   0.0000000   0.0000000  -0.7772605), wk =   0.0000000
        k(   17) = (   0.0000000   0.0000000  -2.3317814), wk =   0.2000000
        k(   18) = (   0.0000000   0.0000000  -1.5545209), wk =   0.0000000
        k(   19) = (   0.0000000   0.0000000  -3.1090419), wk =   0.2000000
        k(   20) = (   0.0000000   0.0000000  -2.3317814), wk =   0.0000000

     Dense  grid:  1311607 G-vectors     FFT dimensions: ( 270, 270,  36)

     Smooth grid:   331329 G-vectors     FFT dimensions: ( 180, 180,  24)

     Estimated max dynamical RAM per process >     434.78 MB

     Estimated total dynamical RAM >      11.89 GB

     The potential is recalculated from file :
     ./outdir/_ph0/carbyne.q_2/carbyne.save/charge-density


     negative rho (up, down):  5.481E-04 0.000E+00
     Starting wfcs are    8 atomic wfcs
     Checking if some PAW data can be deallocated... 

     Band Structure Calculation
     Davidson diagonalization with overlap

     ethr =  1.25E-10,  avg # of iterations = 39.6

     total cpu time spent up to now is       17.0 secs

     End of band structure calculation

          k = 0.0000 0.0000 0.0000 ( 41667 PWs)   bands (ev):

   -21.2256 -14.0150 -10.2879 -10.2879  -0.5141   0.0855   0.1861   0.1861

          k = 0.0000 0.0000 0.7773 ( 41611 PWs)   bands (ev):

   -21.0975 -14.2820 -10.0741 -10.0741  -0.2972   0.3112   0.4128   0.4128

          k = 0.0000 0.0000 0.7773 ( 41611 PWs)   bands (ev):

   -21.0975 -14.2820 -10.0741 -10.0741  -0.2972   0.3112   0.4128   0.4128

          k = 0.0000 0.0000 1.5545 ( 41579 PWs)   bands (ev):

   -20.7183 -15.0055  -9.4344  -9.4344   0.3507   0.9880   1.0924   1.0924

          k = 0.0000 0.0000 1.5545 ( 41579 PWs)   bands (ev):

   -20.7183 -15.0055  -9.4344  -9.4344   0.3507   0.9880   1.0924   1.0924

          k = 0.0000 0.0000 2.3318 ( 41435 PWs)   bands (ev):

   -20.1041 -16.0120  -8.3751  -8.3751  -0.1782  -0.1782   1.4189   2.1157

          k = 0.0000 0.0000 2.3318 ( 41435 PWs)   bands (ev):

   -20.1041 -16.0120  -8.3751  -8.3751  -0.1782  -0.1782   1.4189   2.1157

          k = 0.0000 0.0000 3.1090 ( 41327 PWs)   bands (ev):

   -19.2881 -17.1230  -6.9145  -6.9145  -2.7083  -2.7083   2.8741   3.6928

          k = 0.0000 0.0000 3.1090 ( 41327 PWs)   bands (ev):

   -19.2881 -17.1230  -6.9145  -6.9145  -2.7083  -2.7083   2.8741   3.6928

          k = 0.0000 0.0000 3.8863 ( 41178 PWs)   bands (ev):

   -18.5082 -18.0111  -5.4054  -5.4054  -4.5852  -4.5852   4.4700   4.7403

          k = 0.0000 0.0000-3.8863 ( 41178 PWs)   bands (ev):

   -18.5082 -18.0111  -5.4054  -5.4054  -4.5852  -4.5852   4.4700   4.7403

          k = 0.0000 0.0000-3.1090 ( 41327 PWs)   bands (ev):

   -19.2881 -17.1230  -6.9145  -6.9145  -2.7083  -2.7083   2.8741   3.6928

          k = 0.0000 0.0000-0.7773 ( 41611 PWs)   bands (ev):

   -21.0975 -14.2820 -10.0741 -10.0741  -0.2972   0.3112   0.4128   0.4128

          k = 0.0000 0.0000-0.0000 ( 41667 PWs)   bands (ev):

   -21.2256 -14.0150 -10.2879 -10.2879  -0.5141   0.0855   0.1861   0.1861

          k = 0.0000 0.0000-1.5545 ( 41579 PWs)   bands (ev):

   -20.7183 -15.0055  -9.4344  -9.4344   0.3507   0.9880   1.0924   1.0924

          k = 0.0000 0.0000-0.7773 ( 41611 PWs)   bands (ev):

   -21.0975 -14.2820 -10.0741 -10.0741  -0.2972   0.3112   0.4128   0.4128

          k = 0.0000 0.0000-2.3318 ( 41435 PWs)   bands (ev):

   -20.1041 -16.0120  -8.3751  -8.3751  -0.1782  -0.1782   1.4189   2.1157

          k = 0.0000 0.0000-1.5545 ( 41579 PWs)   bands (ev):

   -20.7183 -15.0055  -9.4344  -9.4344   0.3507   0.9880   1.0924   1.0924

          k = 0.0000 0.0000-3.1090 ( 41327 PWs)   bands (ev):

   -19.2881 -17.1230  -6.9145  -6.9145  -2.7083  -2.7083   2.8741   3.6928

          k = 0.0000 0.0000-2.3318 ( 41435 PWs)   bands (ev):

   -20.1041 -16.0120  -8.3751  -8.3751  -0.1782  -0.1782   1.4189   2.1157

     the Fermi energy is    -4.9547 ev

     Writing output data file ./outdir/_ph0/carbyne.q_2/carbyne.save/

     Phonon of carbyne on a uniform q-grid                                      

     bravais-lattice index     =            0
     lattice parameter (alat)  =      37.7945  a.u.
     unit-cell volume          =    6945.7638 (a.u.)^3
     number of atoms/cell      =            2
     number of atomic types    =            1
     kinetic-energy cut-off    =      50.0000  Ry
     charge density cut-off    =     500.0000  Ry
     convergence threshold     =      1.0E-14
     beta                      =       0.7000
     number of iterations used =            4
     Exchange-correlation= PBE
                           (   1   4   3   4   0   0   0)


     celldm(1)=   37.79452  celldm(2)=    0.00000  celldm(3)=    0.00000
     celldm(4)=    0.00000  celldm(5)=    0.00000  celldm(6)=    0.00000

     crystal axes: (cart. coord. in units of alat)
               a(1) = (  1.0000  0.0000  0.0000 )  
               a(2) = (  0.0000  1.0000  0.0000 )  
               a(3) = (  0.0000  0.0000  0.1287 )  

     reciprocal axes: (cart. coord. in units 2 pi/alat)
               b(1) = (  1.0000  0.0000  0.0000 )  
               b(2) = (  0.0000  1.0000  0.0000 )  
               b(3) = (  0.0000  0.0000  7.7726 )  


     Atoms inside the unit cell: 

     Cartesian axes

     site n.  atom      mass           positions (alat units)
        1     C   12.0107   tau(    1) = (    0.50000    0.50000    0.00000  )
        2     C   12.0107   tau(    2) = (    0.50000    0.50000    0.06211  )

     Computing dynamical matrix for 
                    q = (   0.0000000   0.0000000   0.7772605 )
 
      8 Sym.Ops. (no q -> -q+G )


     G cutoff =18091.2258  (1311607 G-vectors)     FFT grid: (270,270, 36)
     G cutoff = 7236.4903  ( 331329 G-vectors)  smooth grid: (180,180, 24)

     number of k points=    20  Marzari-Vanderbilt smearing, width (Ry)=  0.0500

     PseudoPot. # 1 for C  read from file:
     ./pseudopot/C.pbe-n-kjpaw_psl.1.0.0.UPF
     MD5 check sum: 6fec8efd722f5d988670a8dc528584a2
     Pseudo is Projector augmented-wave + core cor, Zval =  4.0
     Generated using "atomic" code by A. Dal Corso  v.5.1.2
     Shape of augmentation charge: PSQ
     Using radial grid of 1073 points,  4 beta functions with: 
                l(1) =   0
                l(2) =   0
                l(3) =   1
                l(4) =   1
     Q(r) pseudized with 0 coefficients 


     Mode symmetry, C_4v (4mm)  point group:


     Atomic displacements:
     There are    4 irreducible representations

     Representation     1      1 modes -  To be done

     Representation     2      1 modes -  To be done

     Representation     3      2 modes -  To be done

     Representation     4      2 modes -  To be done



     Alpha used in Ewald sum =   2.8000

     negative rho (up, down):  5.481E-04 0.000E+00
     PHONON       :  12m49.90s CPU  10m10.81s WALL



     Representation #   1 mode #   1

     Self-consistent Calculation

      iter #   1 total cpu time :   621.9 secs   av.it.:   6.0
      thresh= 1.000E-02 alpha_mix =  0.700 |ddv_scf|^2 =  1.390E-07

      iter #   2 total cpu time :   634.7 secs   av.it.:  12.0
      thresh= 3.729E-05 alpha_mix =  0.700 |ddv_scf|^2 =  2.086E-06

      iter #   3 total cpu time :   647.7 secs   av.it.:   9.9
      thresh= 1.444E-04 alpha_mix =  0.700 |ddv_scf|^2 =  1.384E-09

      iter #   4 total cpu time :   663.2 secs   av.it.:  12.3
      thresh= 3.720E-06 alpha_mix =  0.700 |ddv_scf|^2 =  1.017E-09

      iter #   5 total cpu time :   676.7 secs   av.it.:  11.6
      thresh= 3.190E-06 alpha_mix =  0.700 |ddv_scf|^2 =  6.614E-12

      iter #   6 total cpu time :   691.5 secs   av.it.:  11.4
      thresh= 2.572E-07 alpha_mix =  0.700 |ddv_scf|^2 =  1.030E-13

      iter #   7 total cpu time :   702.3 secs   av.it.:  11.4
      thresh= 3.209E-08 alpha_mix =  0.700 |ddv_scf|^2 =  4.009E-15

     End of self-consistent calculation

     Convergence has been achieved 


     Representation #   2 mode #   2

     Self-consistent Calculation

      iter #   1 total cpu time :   718.1 secs   av.it.:   6.0
      thresh= 1.000E-02 alpha_mix =  0.700 |ddv_scf|^2 =  1.386E-07

      iter #   2 total cpu time :   730.5 secs   av.it.:  12.0
      thresh= 3.723E-05 alpha_mix =  0.700 |ddv_scf|^2 =  2.086E-06

      iter #   3 total cpu time :   742.7 secs   av.it.:   9.9
      thresh= 1.444E-04 alpha_mix =  0.700 |ddv_scf|^2 =  1.628E-09

      iter #   4 total cpu time :   756.1 secs   av.it.:  12.3
      thresh= 4.034E-06 alpha_mix =  0.700 |ddv_scf|^2 =  1.051E-09

      iter #   5 total cpu time :   770.0 secs   av.it.:  11.6
      thresh= 3.242E-06 alpha_mix =  0.700 |ddv_scf|^2 =  6.660E-12

      iter #   6 total cpu time :   785.1 secs   av.it.:  11.3
      thresh= 2.581E-07 alpha_mix =  0.700 |ddv_scf|^2 =  1.363E-13

      iter #   7 total cpu time :   796.1 secs   av.it.:  11.4
      thresh= 3.692E-08 alpha_mix =  0.700 |ddv_scf|^2 =  6.118E-15

     End of self-consistent calculation

     Convergence has been achieved 


     Representation #   3 modes #   3   4

     Self-consistent Calculation

      iter #   1 total cpu time :   818.5 secs   av.it.:   5.7
      thresh= 1.000E-02 alpha_mix =  0.700 |ddv_scf|^2 =  7.588E-09

      iter #   2 total cpu time :   840.6 secs   av.it.:  12.2
      thresh= 8.711E-06 alpha_mix =  0.700 |ddv_scf|^2 =  6.574E-10

      iter #   3 total cpu time :   863.5 secs   av.it.:  12.3
      thresh= 2.564E-06 alpha_mix =  0.700 |ddv_scf|^2 =  6.337E-11

      iter #   4 total cpu time :   886.8 secs   av.it.:  12.0
      thresh= 7.961E-07 alpha_mix =  0.700 |ddv_scf|^2 =  1.822E-14

      iter #   5 total cpu time :   905.6 secs   av.it.:  12.2
      thresh= 1.350E-08 alpha_mix =  0.700 |ddv_scf|^2 =  6.280E-16

     End of self-consistent calculation

     Convergence has been achieved 


     Representation #   4 modes #   5   6

     Self-consistent Calculation

      iter #   1 total cpu time :   931.5 secs   av.it.:   5.7
      thresh= 1.000E-02 alpha_mix =  0.700 |ddv_scf|^2 =  6.835E-09

      iter #   2 total cpu time :   953.4 secs   av.it.:  12.3
      thresh= 8.267E-06 alpha_mix =  0.700 |ddv_scf|^2 =  1.045E-09

      iter #   3 total cpu time :   975.7 secs   av.it.:  12.1
      thresh= 3.233E-06 alpha_mix =  0.700 |ddv_scf|^2 =  5.828E-11

      iter #   4 total cpu time :   999.5 secs   av.it.:  12.2
      thresh= 7.634E-07 alpha_mix =  0.700 |ddv_scf|^2 =  1.767E-14

      iter #   5 total cpu time :  1018.7 secs   av.it.:  12.3
      thresh= 1.329E-08 alpha_mix =  0.700 |ddv_scf|^2 =  2.619E-16

     End of self-consistent calculation

     Convergence has been achieved 
 
     Number of q in the star =    1
     List of q in the star:
          1   0.000000000   0.000000000   0.777260468
     In addition there is the -q list: 
          1   0.000000000   0.000000000  -0.777260468

     Diagonalizing the dynamical matrix

     q = (    0.000000000   0.000000000   0.777260468 ) 

 **************************************************************************
     freq (    1) =       1.790168 [THz] =      59.713588 [cm-1]
     freq (    2) =       1.790168 [THz] =      59.713588 [cm-1]
     freq (    3) =      11.880300 [THz] =     396.284158 [cm-1]
     freq (    4) =      14.611854 [THz] =     487.398980 [cm-1]
     freq (    5) =      14.611854 [THz] =     487.398980 [cm-1]
     freq (    6) =      59.290392 [THz] =    1977.714601 [cm-1]
 **************************************************************************

     Mode symmetry, C_4v (4mm)  point group:

     freq (   1-   2) =         59.7  [cm-1]   --> E    G_5 D_5       
     freq (   3-   3) =        396.3  [cm-1]   --> A_1  G_1 D_1       
     freq (   4-   5) =        487.4  [cm-1]   --> E    G_5 D_5       
     freq (   6-   6) =       1977.7  [cm-1]   --> A_1  G_1 D_1       
     electron-phonon interaction  ...

     Gaussian Broadening:   0.005 Ry, ngauss=   0
     DOS =  0.000000 states/spin/Ry/Unit Cell at Ef= -4.962847 eV
     lambda(    1)=  0.0000   gamma=    0.00 GHz
     lambda(    2)=  0.0000   gamma=    0.00 GHz
     lambda(    3)=  0.0000   gamma=    0.00 GHz
     lambda(    4)=  0.0000   gamma=    0.00 GHz
     lambda(    5)=  0.0000   gamma=    0.00 GHz
     lambda(    6)=  0.0000   gamma=    0.00 GHz
     Gaussian Broadening:   0.010 Ry, ngauss=   0
     DOS =  0.002559 states/spin/Ry/Unit Cell at Ef= -4.995291 eV
     lambda(    1)=  0.0000   gamma=    0.00 GHz
     lambda(    2)=  0.0000   gamma=    0.00 GHz
     lambda(    3)=  0.0000   gamma=    0.00 GHz
     lambda(    4)=  0.0000   gamma=    0.00 GHz
     lambda(    5)=  0.0000   gamma=    0.00 GHz
     lambda(    6)=  0.0000   gamma=    0.00 GHz
     Gaussian Broadening:   0.015 Ry, ngauss=   0
     DOS =  0.265398 states/spin/Ry/Unit Cell at Ef= -4.995291 eV
     lambda(    1)=  0.0000   gamma=    0.00 GHz
     lambda(    2)=  0.0000   gamma=    0.00 GHz
     lambda(    3)=  0.0000   gamma=    0.00 GHz
     lambda(    4)=  0.0000   gamma=    0.00 GHz
     lambda(    5)=  0.0000   gamma=    0.00 GHz
     lambda(    6)=  0.0000   gamma=    0.00 GHz
     Gaussian Broadening:   0.020 Ry, ngauss=   0
     DOS =  1.164430 states/spin/Ry/Unit Cell at Ef= -4.995291 eV
     lambda(    1)=  0.0000   gamma=    0.00 GHz
     lambda(    2)=  0.0000   gamma=    0.00 GHz
     lambda(    3)=  0.0000   gamma=    0.00 GHz
     lambda(    4)=  0.0000   gamma=    0.00 GHz
     lambda(    5)=  0.0000   gamma=    0.00 GHz
     lambda(    6)=  0.0000   gamma=    0.00 GHz
     Gaussian Broadening:   0.025 Ry, ngauss=   0
     DOS =  2.110019 states/spin/Ry/Unit Cell at Ef= -4.995291 eV
     lambda(    1)=  0.0000   gamma=    0.00 GHz
     lambda(    2)=  0.0000   gamma=    0.00 GHz
     lambda(    3)=  0.0000   gamma=    0.00 GHz
     lambda(    4)=  0.0000   gamma=    0.00 GHz
     lambda(    5)=  0.0000   gamma=    0.00 GHz
     lambda(    6)=  0.0000   gamma=    0.00 GHz
     Gaussian Broadening:   0.030 Ry, ngauss=   0
     DOS =  2.741510 states/spin/Ry/Unit Cell at Ef= -4.995291 eV
     lambda(    1)=  0.0000   gamma=    0.00 GHz
     lambda(    2)=  0.0000   gamma=    0.00 GHz
     lambda(    3)=  0.0000   gamma=    0.00 GHz
     lambda(    4)=  0.0000   gamma=    0.00 GHz
     lambda(    5)=  0.0000   gamma=    0.00 GHz
     lambda(    6)=  0.0000   gamma=    0.00 GHz
     Gaussian Broadening:   0.035 Ry, ngauss=   0
     DOS =  3.071471 states/spin/Ry/Unit Cell at Ef= -4.995291 eV
     lambda(    1)=  0.0000   gamma=    0.00 GHz
     lambda(    2)=  0.0000   gamma=    0.00 GHz
     lambda(    3)=  0.0000   gamma=    0.00 GHz
     lambda(    4)=  0.0000   gamma=    0.00 GHz
     lambda(    5)=  0.0000   gamma=    0.00 GHz
     lambda(    6)=  0.0000   gamma=    0.00 GHz
     Gaussian Broadening:   0.040 Ry, ngauss=   0
     DOS =  3.197737 states/spin/Ry/Unit Cell at Ef= -4.995290 eV
     lambda(    1)=  0.0000   gamma=    0.00 GHz
     lambda(    2)=  0.0000   gamma=    0.00 GHz
     lambda(    3)=  0.0000   gamma=    0.00 GHz
     lambda(    4)=  0.0000   gamma=    0.00 GHz
     lambda(    5)=  0.0000   gamma=    0.00 GHz
     lambda(    6)=  0.0000   gamma=    0.04 GHz
     Gaussian Broadening:   0.045 Ry, ngauss=   0
     DOS =  3.202410 states/spin/Ry/Unit Cell at Ef= -4.995283 eV
     lambda(    1)=  0.0000   gamma=    0.00 GHz
     lambda(    2)=  0.0000   gamma=    0.00 GHz
     lambda(    3)=  0.0000   gamma=    0.01 GHz
     lambda(    4)=  0.0000   gamma=    0.00 GHz
     lambda(    5)=  0.0000   gamma=    0.00 GHz
     lambda(    6)=  0.0001   gamma=    0.54 GHz
     Gaussian Broadening:   0.050 Ry, ngauss=   0
     DOS =  3.139975 states/spin/Ry/Unit Cell at Ef= -4.995235 eV
     lambda(    1)=  0.0000   gamma=    0.00 GHz
     lambda(    2)=  0.0000   gamma=    0.00 GHz
     lambda(    3)=  0.0002   gamma=    0.07 GHz
     lambda(    4)=  0.0000   gamma=    0.00 GHz
     lambda(    5)=  0.0000   gamma=    0.00 GHz
     lambda(    6)=  0.0003   gamma=    3.18 GHz
 
 
     Number of q in the star =    1
     List of q in the star:
          1   0.000000000   0.000000000   0.777260468
     In addition there is the -q list: 
          1   0.000000000   0.000000000  -0.777260468

     Calculation of q =    0.0000000   0.0000000   1.5545209
     Message from routine divide_et_impera:
     suboptimal parallelization: some nodes have no k-points
 
     G-vector sticks info
     --------------------
     sticks:   dense  smooth     PW     G-vecs:    dense   smooth      PW
     Sum       56853   22733   7009              1311607   331329   56405
 

     Title: 
     Phonon of carbyne on a uniform q-grid                                      


     bravais-lattice index     =            0
     lattice parameter (alat)  =      37.7945  a.u.
     unit-cell volume          =    6945.7638 (a.u.)^3
     number of atoms/cell      =            2
     number of atomic types    =            1
     number of electrons       =         8.00
     number of Kohn-Sham states=            8
     kinetic-energy cutoff     =      50.0000  Ry
     charge density cutoff     =     500.0000  Ry
     Exchange-correlation= PBE
                           (   1   4   3   4   0   0   0)

     celldm(1)=  37.794522  celldm(2)=   0.000000  celldm(3)=   0.000000
     celldm(4)=   0.000000  celldm(5)=   0.000000  celldm(6)=   0.000000

     crystal axes: (cart. coord. in units of alat)
               a(1) = (   1.000000   0.000000   0.000000 )  
               a(2) = (   0.000000   1.000000   0.000000 )  
               a(3) = (   0.000000   0.000000   0.128657 )  

     reciprocal axes: (cart. coord. in units 2 pi/alat)
               b(1) = (  1.000000  0.000000  0.000000 )  
               b(2) = (  0.000000  1.000000  0.000000 )  
               b(3) = (  0.000000  0.000000  7.772605 )  


     PseudoPot. # 1 for C  read from file:
     ./pseudopot/C.pbe-n-kjpaw_psl.1.0.0.UPF
     MD5 check sum: 6fec8efd722f5d988670a8dc528584a2
     Pseudo is Projector augmented-wave + core cor, Zval =  4.0
     Generated using "atomic" code by A. Dal Corso  v.5.1.2
     Shape of augmentation charge: PSQ
     Using radial grid of 1073 points,  4 beta functions with: 
                l(1) =   0
                l(2) =   0
                l(3) =   1
                l(4) =   1
     Q(r) pseudized with 0 coefficients 


     atomic species   valence    mass     pseudopotential
        C              4.00    12.01070     C ( 1.00)

      8 Sym. Ops. (no inversion) found



   Cartesian axes

     site n.     atom                  positions (alat units)
         1           C   tau(   1) = (   0.5000000   0.5000000   0.0000000  )
         2           C   tau(   2) = (   0.5000000   0.5000000   0.0621126  )

     number of k points=    20  Marzari-Vanderbilt smearing, width (Ry)=  0.0500
                       cart. coord. in units 2pi/alat
        k(    1) = (   0.0000000   0.0000000   0.0000000), wk =   0.2000000
        k(    2) = (   0.0000000   0.0000000   1.5545209), wk =   0.0000000
        k(    3) = (   0.0000000   0.0000000   0.7772605), wk =   0.2000000
        k(    4) = (   0.0000000   0.0000000   2.3317814), wk =   0.0000000
        k(    5) = (   0.0000000   0.0000000   1.5545209), wk =   0.2000000
        k(    6) = (   0.0000000   0.0000000   3.1090419), wk =   0.0000000
        k(    7) = (   0.0000000   0.0000000   2.3317814), wk =   0.2000000
        k(    8) = (   0.0000000   0.0000000   3.8863023), wk =   0.0000000
        k(    9) = (   0.0000000   0.0000000   3.1090419), wk =   0.2000000
        k(   10) = (   0.0000000   0.0000000   4.6635628), wk =   0.0000000
        k(   11) = (   0.0000000   0.0000000  -3.8863023), wk =   0.2000000
        k(   12) = (   0.0000000   0.0000000  -2.3317814), wk =   0.0000000
        k(   13) = (   0.0000000   0.0000000  -0.7772605), wk =   0.2000000
        k(   14) = (   0.0000000   0.0000000   0.7772605), wk =   0.0000000
        k(   15) = (   0.0000000   0.0000000  -1.5545209), wk =   0.2000000
        k(   16) = (   0.0000000   0.0000000  -0.0000000), wk =   0.0000000
        k(   17) = (   0.0000000   0.0000000  -2.3317814), wk =   0.2000000
        k(   18) = (   0.0000000   0.0000000  -0.7772605), wk =   0.0000000
        k(   19) = (   0.0000000   0.0000000  -3.1090419), wk =   0.2000000
        k(   20) = (   0.0000000   0.0000000  -1.5545209), wk =   0.0000000

     Dense  grid:  1311607 G-vectors     FFT dimensions: ( 270, 270,  36)

     Smooth grid:   331329 G-vectors     FFT dimensions: ( 180, 180,  24)

     Estimated max dynamical RAM per process >     434.79 MB

     Estimated total dynamical RAM >      11.89 GB

     The potential is recalculated from file :
     ./outdir/_ph0/carbyne.q_3/carbyne.save/charge-density


     negative rho (up, down):  5.481E-04 0.000E+00
     Starting wfcs are    8 atomic wfcs
     Checking if some PAW data can be deallocated... 

     Band Structure Calculation
     Davidson diagonalization with overlap

     ethr =  1.25E-10,  avg # of iterations = 39.6

     total cpu time spent up to now is       34.2 secs

     End of band structure calculation

          k = 0.0000 0.0000 0.0000 ( 41667 PWs)   bands (ev):

   -21.2256 -14.0150 -10.2879 -10.2879  -0.5141   0.0855   0.1861   0.1861

          k = 0.0000 0.0000 1.5545 ( 41579 PWs)   bands (ev):

   -20.7183 -15.0055  -9.4344  -9.4344   0.3507   0.9880   1.0924   1.0924

          k = 0.0000 0.0000 0.7773 ( 41611 PWs)   bands (ev):

   -21.0975 -14.2820 -10.0741 -10.0741  -0.2972   0.3112   0.4128   0.4128

          k = 0.0000 0.0000 2.3318 ( 41435 PWs)   bands (ev):

   -20.1041 -16.0120  -8.3751  -8.3751  -0.1782  -0.1782   1.4189   2.1157

          k = 0.0000 0.0000 1.5545 ( 41579 PWs)   bands (ev):

   -20.7183 -15.0055  -9.4344  -9.4344   0.3507   0.9880   1.0924   1.0924

          k = 0.0000 0.0000 3.1090 ( 41327 PWs)   bands (ev):

   -19.2881 -17.1230  -6.9145  -6.9145  -2.7083  -2.7083   2.8741   3.6928

          k = 0.0000 0.0000 2.3318 ( 41435 PWs)   bands (ev):

   -20.1041 -16.0120  -8.3751  -8.3751  -0.1782  -0.1782   1.4189   2.1157

          k = 0.0000 0.0000 3.8863 ( 41178 PWs)   bands (ev):

   -18.5082 -18.0111  -5.4054  -5.4054  -4.5852  -4.5852   4.4700   4.7403

          k = 0.0000 0.0000 3.1090 ( 41327 PWs)   bands (ev):

   -19.2881 -17.1230  -6.9145  -6.9145  -2.7083  -2.7083   2.8741   3.6928

          k = 0.0000 0.0000 4.6636 ( 41327 PWs)   bands (ev):

   -19.2881 -17.1230  -6.9145  -6.9145  -2.7083  -2.7083   2.8741   3.6928

          k = 0.0000 0.0000-3.8863 ( 41178 PWs)   bands (ev):

   -18.5082 -18.0111  -5.4054  -5.4054  -4.5852  -4.5852   4.4700   4.7403

          k = 0.0000 0.0000-2.3318 ( 41435 PWs)   bands (ev):

   -20.1041 -16.0120  -8.3751  -8.3751  -0.1782  -0.1782   1.4189   2.1157

          k = 0.0000 0.0000-0.7773 ( 41611 PWs)   bands (ev):

   -21.0975 -14.2820 -10.0741 -10.0741  -0.2972   0.3112   0.4128   0.4128

          k = 0.0000 0.0000 0.7773 ( 41611 PWs)   bands (ev):

   -21.0975 -14.2820 -10.0741 -10.0741  -0.2972   0.3112   0.4128   0.4128

          k = 0.0000 0.0000-1.5545 ( 41579 PWs)   bands (ev):

   -20.7183 -15.0055  -9.4344  -9.4344   0.3507   0.9880   1.0924   1.0924

          k = 0.0000 0.0000-0.0000 ( 41667 PWs)   bands (ev):

   -21.2256 -14.0150 -10.2879 -10.2879  -0.5141   0.0855   0.1861   0.1861

          k = 0.0000 0.0000-2.3318 ( 41435 PWs)   bands (ev):

   -20.1041 -16.0120  -8.3751  -8.3751  -0.1782  -0.1782   1.4189   2.1157

          k = 0.0000 0.0000-0.7773 ( 41611 PWs)   bands (ev):

   -21.0975 -14.2820 -10.0741 -10.0741  -0.2972   0.3112   0.4128   0.4128

          k = 0.0000 0.0000-3.1090 ( 41327 PWs)   bands (ev):

   -19.2881 -17.1230  -6.9145  -6.9145  -2.7083  -2.7083   2.8741   3.6928

          k = 0.0000 0.0000-1.5545 ( 41579 PWs)   bands (ev):

   -20.7183 -15.0055  -9.4344  -9.4344   0.3507   0.9880   1.0924   1.0924

     the Fermi energy is    -4.9547 ev

     Writing output data file ./outdir/_ph0/carbyne.q_3/carbyne.save/

     Phonon of carbyne on a uniform q-grid                                      

     bravais-lattice index     =            0
     lattice parameter (alat)  =      37.7945  a.u.
     unit-cell volume          =    6945.7638 (a.u.)^3
     number of atoms/cell      =            2
     number of atomic types    =            1
     kinetic-energy cut-off    =      50.0000  Ry
     charge density cut-off    =     500.0000  Ry
     convergence threshold     =      1.0E-14
     beta                      =       0.7000
     number of iterations used =            4
     Exchange-correlation= PBE
                           (   1   4   3   4   0   0   0)


     celldm(1)=   37.79452  celldm(2)=    0.00000  celldm(3)=    0.00000
     celldm(4)=    0.00000  celldm(5)=    0.00000  celldm(6)=    0.00000

     crystal axes: (cart. coord. in units of alat)
               a(1) = (  1.0000  0.0000  0.0000 )  
               a(2) = (  0.0000  1.0000  0.0000 )  
               a(3) = (  0.0000  0.0000  0.1287 )  

     reciprocal axes: (cart. coord. in units 2 pi/alat)
               b(1) = (  1.0000  0.0000  0.0000 )  
               b(2) = (  0.0000  1.0000  0.0000 )  
               b(3) = (  0.0000  0.0000  7.7726 )  


     Atoms inside the unit cell: 

     Cartesian axes

     site n.  atom      mass           positions (alat units)
        1     C   12.0107   tau(    1) = (    0.50000    0.50000    0.00000  )
        2     C   12.0107   tau(    2) = (    0.50000    0.50000    0.06211  )

     Computing dynamical matrix for 
                    q = (   0.0000000   0.0000000   1.5545209 )
 
      8 Sym.Ops. (no q -> -q+G )


     G cutoff =18091.2258  (1311607 G-vectors)     FFT grid: (270,270, 36)
     G cutoff = 7236.4903  ( 331329 G-vectors)  smooth grid: (180,180, 24)

     number of k points=    20  Marzari-Vanderbilt smearing, width (Ry)=  0.0500

     PseudoPot. # 1 for C  read from file:
     ./pseudopot/C.pbe-n-kjpaw_psl.1.0.0.UPF
     MD5 check sum: 6fec8efd722f5d988670a8dc528584a2
     Pseudo is Projector augmented-wave + core cor, Zval =  4.0
     Generated using "atomic" code by A. Dal Corso  v.5.1.2
     Shape of augmentation charge: PSQ
     Using radial grid of 1073 points,  4 beta functions with: 
                l(1) =   0
                l(2) =   0
                l(3) =   1
                l(4) =   1
     Q(r) pseudized with 0 coefficients 


     Mode symmetry, C_4v (4mm)  point group:


     Atomic displacements:
     There are    4 irreducible representations

     Representation     1      1 modes -  To be done

     Representation     2      1 modes -  To be done

     Representation     3      2 modes -  To be done

     Representation     4      2 modes -  To be done



     Alpha used in Ewald sum =   2.8000

     negative rho (up, down):  5.481E-04 0.000E+00
     PHONON       :  24m19.43s CPU  19m10.92s WALL



     Representation #   1 mode #   1

     Self-consistent Calculation

      iter #   1 total cpu time :  1161.5 secs   av.it.:   6.2
      thresh= 1.000E-02 alpha_mix =  0.700 |ddv_scf|^2 =  8.039E-08

      iter #   2 total cpu time :  1173.8 secs   av.it.:  12.3
      thresh= 2.835E-05 alpha_mix =  0.700 |ddv_scf|^2 =  6.344E-07

      iter #   3 total cpu time :  1186.4 secs   av.it.:  10.6
      thresh= 7.965E-05 alpha_mix =  0.700 |ddv_scf|^2 =  1.917E-09

      iter #   4 total cpu time :  1199.4 secs   av.it.:  12.4
      thresh= 4.379E-06 alpha_mix =  0.700 |ddv_scf|^2 =  8.674E-10

      iter #   5 total cpu time :  1213.3 secs   av.it.:  12.0
      thresh= 2.945E-06 alpha_mix =  0.700 |ddv_scf|^2 =  1.613E-12

      iter #   6 total cpu time :  1228.1 secs   av.it.:  11.3
      thresh= 1.270E-07 alpha_mix =  0.700 |ddv_scf|^2 =  1.802E-14

      iter #   7 total cpu time :  1239.0 secs   av.it.:  11.5
      thresh= 1.342E-08 alpha_mix =  0.700 |ddv_scf|^2 =  6.648E-16

     End of self-consistent calculation

     Convergence has been achieved 


     Representation #   2 mode #   2

     Self-consistent Calculation

      iter #   1 total cpu time :  1254.5 secs   av.it.:   6.2
      thresh= 1.000E-02 alpha_mix =  0.700 |ddv_scf|^2 =  7.841E-08

      iter #   2 total cpu time :  1267.3 secs   av.it.:  12.4
      thresh= 2.800E-05 alpha_mix =  0.700 |ddv_scf|^2 =  6.337E-07

      iter #   3 total cpu time :  1279.9 secs   av.it.:  10.6
      thresh= 7.961E-05 alpha_mix =  0.700 |ddv_scf|^2 =  2.012E-09

      iter #   4 total cpu time :  1292.9 secs   av.it.:  12.4
      thresh= 4.486E-06 alpha_mix =  0.700 |ddv_scf|^2 =  8.156E-10

      iter #   5 total cpu time :  1306.8 secs   av.it.:  12.1
      thresh= 2.856E-06 alpha_mix =  0.700 |ddv_scf|^2 =  2.501E-12

      iter #   6 total cpu time :  1321.8 secs   av.it.:  11.4
      thresh= 1.581E-07 alpha_mix =  0.700 |ddv_scf|^2 =  1.912E-14

      iter #   7 total cpu time :  1332.7 secs   av.it.:  11.5
      thresh= 1.383E-08 alpha_mix =  0.700 |ddv_scf|^2 =  4.828E-16

     End of self-consistent calculation

     Convergence has been achieved 


     Representation #   3 modes #   3   4

     Self-consistent Calculation

      iter #   1 total cpu time :  1355.6 secs   av.it.:   5.7
      thresh= 1.000E-02 alpha_mix =  0.700 |ddv_scf|^2 =  6.164E-09

      iter #   2 total cpu time :  1377.8 secs   av.it.:  12.5
      thresh= 7.851E-06 alpha_mix =  0.700 |ddv_scf|^2 =  4.634E-10

      iter #   3 total cpu time :  1401.0 secs   av.it.:  12.6
      thresh= 2.153E-06 alpha_mix =  0.700 |ddv_scf|^2 =  2.802E-11

      iter #   4 total cpu time :  1420.3 secs   av.it.:  12.6
      thresh= 5.294E-07 alpha_mix =  0.700 |ddv_scf|^2 =  6.248E-15

     End of self-consistent calculation

     Convergence has been achieved 


     Representation #   4 modes #   5   6

     Self-consistent Calculation

      iter #   1 total cpu time :  1446.4 secs   av.it.:   5.7
      thresh= 1.000E-02 alpha_mix =  0.700 |ddv_scf|^2 =  5.731E-09

      iter #   2 total cpu time :  1468.5 secs   av.it.:  12.5
      thresh= 7.571E-06 alpha_mix =  0.700 |ddv_scf|^2 =  7.145E-10

      iter #   3 total cpu time :  1491.3 secs   av.it.:  12.2
      thresh= 2.673E-06 alpha_mix =  0.700 |ddv_scf|^2 =  2.034E-11

      iter #   4 total cpu time :  1516.2 secs   av.it.:  12.7
      thresh= 4.510E-07 alpha_mix =  0.700 |ddv_scf|^2 =  2.629E-14

      iter #   5 total cpu time :  1535.6 secs   av.it.:  12.5
      thresh= 1.621E-08 alpha_mix =  0.700 |ddv_scf|^2 =  2.935E-16

     End of self-consistent calculation

     Convergence has been achieved 
 
     Number of q in the star =    1
     List of q in the star:
          1   0.000000000   0.000000000   1.554520936
     In addition there is the -q list: 
          1   0.000000000   0.000000000  -1.554520936

     Diagonalizing the dynamical matrix

     q = (    0.000000000   0.000000000   1.554520936 ) 

 **************************************************************************
     freq (    1) =       2.393942 [THz] =      79.853318 [cm-1]
     freq (    2) =       2.393942 [THz] =      79.853318 [cm-1]
     freq (    3) =      14.447787 [THz] =     481.926306 [cm-1]
     freq (    4) =      14.447787 [THz] =     481.926306 [cm-1]
     freq (    5) =      23.396013 [THz] =     780.406991 [cm-1]
     freq (    6) =      65.511974 [THz] =    2185.244228 [cm-1]
 **************************************************************************

     Mode symmetry, C_4v (4mm)  point group:

     freq (   1-   2) =         79.9  [cm-1]   --> E    G_5 D_5       
     freq (   3-   4) =        481.9  [cm-1]   --> E    G_5 D_5       
     freq (   5-   5) =        780.4  [cm-1]   --> A_1  G_1 D_1       
     freq (   6-   6) =       2185.2  [cm-1]   --> A_1  G_1 D_1       
     electron-phonon interaction  ...

     Gaussian Broadening:   0.005 Ry, ngauss=   0
     DOS =  0.000000 states/spin/Ry/Unit Cell at Ef= -4.962847 eV
     lambda(    1)=  0.0000   gamma=    0.00 GHz
     lambda(    2)=  0.0000   gamma=    0.00 GHz
     lambda(    3)=  0.0000   gamma=    0.00 GHz
     lambda(    4)=  0.0000   gamma=    0.00 GHz
     lambda(    5)=  0.0000   gamma=    0.00 GHz
     lambda(    6)=  0.0000   gamma=    0.00 GHz
     Gaussian Broadening:   0.010 Ry, ngauss=   0
     DOS =  0.002559 states/spin/Ry/Unit Cell at Ef= -4.995291 eV
     lambda(    1)=  0.0000   gamma=    0.00 GHz
     lambda(    2)=  0.0000   gamma=    0.00 GHz
     lambda(    3)=  0.0000   gamma=    0.00 GHz
     lambda(    4)=  0.0000   gamma=    0.00 GHz
     lambda(    5)=  0.0000   gamma=    0.00 GHz
     lambda(    6)=  0.0000   gamma=    0.00 GHz
     Gaussian Broadening:   0.015 Ry, ngauss=   0
     DOS =  0.265398 states/spin/Ry/Unit Cell at Ef= -4.995291 eV
     lambda(    1)=  0.0000   gamma=    0.00 GHz
     lambda(    2)=  0.0000   gamma=    0.00 GHz
     lambda(    3)=  0.0000   gamma=    0.00 GHz
     lambda(    4)=  0.0000   gamma=    0.00 GHz
     lambda(    5)=  0.0000   gamma=    0.00 GHz
     lambda(    6)=  0.0000   gamma=    0.00 GHz
     Gaussian Broadening:   0.020 Ry, ngauss=   0
     DOS =  1.164430 states/spin/Ry/Unit Cell at Ef= -4.995291 eV
     lambda(    1)=  0.0000   gamma=    0.00 GHz
     lambda(    2)=  0.0000   gamma=    0.00 GHz
     lambda(    3)=  0.0000   gamma=    0.00 GHz
     lambda(    4)=  0.0000   gamma=    0.00 GHz
     lambda(    5)=  0.0000   gamma=    0.00 GHz
     lambda(    6)=  0.0000   gamma=    0.00 GHz
     Gaussian Broadening:   0.025 Ry, ngauss=   0
     DOS =  2.110019 states/spin/Ry/Unit Cell at Ef= -4.995291 eV
     lambda(    1)=  0.0000   gamma=    0.00 GHz
     lambda(    2)=  0.0000   gamma=    0.00 GHz
     lambda(    3)=  0.0000   gamma=    0.00 GHz
     lambda(    4)=  0.0000   gamma=    0.00 GHz
     lambda(    5)=  0.0000   gamma=    0.00 GHz
     lambda(    6)=  0.0000   gamma=    0.00 GHz
     Gaussian Broadening:   0.030 Ry, ngauss=   0
     DOS =  2.741510 states/spin/Ry/Unit Cell at Ef= -4.995291 eV
     lambda(    1)=  0.0000   gamma=    0.00 GHz
     lambda(    2)=  0.0000   gamma=    0.00 GHz
     lambda(    3)=  0.0000   gamma=    0.00 GHz
     lambda(    4)=  0.0000   gamma=    0.00 GHz
     lambda(    5)=  0.0000   gamma=    0.00 GHz
     lambda(    6)=  0.0000   gamma=    0.00 GHz
     Gaussian Broadening:   0.035 Ry, ngauss=   0
     DOS =  3.071471 states/spin/Ry/Unit Cell at Ef= -4.995291 eV
     lambda(    1)=  0.0000   gamma=    0.00 GHz
     lambda(    2)=  0.0000   gamma=    0.00 GHz
     lambda(    3)=  0.0000   gamma=    0.00 GHz
     lambda(    4)=  0.0000   gamma=    0.00 GHz
     lambda(    5)=  0.0000   gamma=    0.00 GHz
     lambda(    6)=  0.0000   gamma=    0.00 GHz
     Gaussian Broadening:   0.040 Ry, ngauss=   0
     DOS =  3.197737 states/spin/Ry/Unit Cell at Ef= -4.995290 eV
     lambda(    1)=  0.0000   gamma=    0.00 GHz
     lambda(    2)=  0.0000   gamma=    0.00 GHz
     lambda(    3)=  0.0000   gamma=    0.00 GHz
     lambda(    4)=  0.0000   gamma=    0.00 GHz
     lambda(    5)=  0.0000   gamma=    0.00 GHz
     lambda(    6)=  0.0000   gamma=    0.00 GHz
     Gaussian Broadening:   0.045 Ry, ngauss=   0
     DOS =  3.202410 states/spin/Ry/Unit Cell at Ef= -4.995283 eV
     lambda(    1)=  0.0000   gamma=    0.00 GHz
     lambda(    2)=  0.0000   gamma=    0.00 GHz
     lambda(    3)=  0.0000   gamma=    0.00 GHz
     lambda(    4)=  0.0000   gamma=    0.00 GHz
     lambda(    5)=  0.0000   gamma=    0.00 GHz
     lambda(    6)=  0.0000   gamma=    0.00 GHz
     Gaussian Broadening:   0.050 Ry, ngauss=   0
     DOS =  3.139975 states/spin/Ry/Unit Cell at Ef= -4.995235 eV
     lambda(    1)=  0.0000   gamma=    0.00 GHz
     lambda(    2)=  0.0000   gamma=    0.00 GHz
     lambda(    3)=  0.0000   gamma=    0.00 GHz
     lambda(    4)=  0.0000   gamma=    0.00 GHz
     lambda(    5)=  0.0000   gamma=    0.00 GHz
     lambda(    6)=  0.0000   gamma=    0.00 GHz
 
 
     Number of q in the star =    1
     List of q in the star:
          1   0.000000000   0.000000000   1.554520936
     In addition there is the -q list: 
          1   0.000000000   0.000000000  -1.554520936

     Calculation of q =    0.0000000   0.0000000   2.3317814
     Message from routine divide_et_impera:
     suboptimal parallelization: some nodes have no k-points
 
     G-vector sticks info
     --------------------
     sticks:   dense  smooth     PW     G-vecs:    dense   smooth      PW
     Sum       56853   22733   7209              1311607   331329   59421
 

     Title: 
     Phonon of carbyne on a uniform q-grid                                      


     bravais-lattice index     =            0
     lattice parameter (alat)  =      37.7945  a.u.
     unit-cell volume          =    6945.7638 (a.u.)^3
     number of atoms/cell      =            2
     number of atomic types    =            1
     number of electrons       =         8.00
     number of Kohn-Sham states=            8
     kinetic-energy cutoff     =      50.0000  Ry
     charge density cutoff     =     500.0000  Ry
     Exchange-correlation= PBE
                           (   1   4   3   4   0   0   0)

     celldm(1)=  37.794522  celldm(2)=   0.000000  celldm(3)=   0.000000
     celldm(4)=   0.000000  celldm(5)=   0.000000  celldm(6)=   0.000000

     crystal axes: (cart. coord. in units of alat)
               a(1) = (   1.000000   0.000000   0.000000 )  
               a(2) = (   0.000000   1.000000   0.000000 )  
               a(3) = (   0.000000   0.000000   0.128657 )  

     reciprocal axes: (cart. coord. in units 2 pi/alat)
               b(1) = (  1.000000  0.000000  0.000000 )  
               b(2) = (  0.000000  1.000000  0.000000 )  
               b(3) = (  0.000000  0.000000  7.772605 )  


     PseudoPot. # 1 for C  read from file:
     ./pseudopot/C.pbe-n-kjpaw_psl.1.0.0.UPF
     MD5 check sum: 6fec8efd722f5d988670a8dc528584a2
     Pseudo is Projector augmented-wave + core cor, Zval =  4.0
     Generated using "atomic" code by A. Dal Corso  v.5.1.2
     Shape of augmentation charge: PSQ
     Using radial grid of 1073 points,  4 beta functions with: 
                l(1) =   0
                l(2) =   0
                l(3) =   1
                l(4) =   1
     Q(r) pseudized with 0 coefficients 


     atomic species   valence    mass     pseudopotential
        C              4.00    12.01070     C ( 1.00)

      8 Sym. Ops. (no inversion) found



   Cartesian axes

     site n.     atom                  positions (alat units)
         1           C   tau(   1) = (   0.5000000   0.5000000   0.0000000  )
         2           C   tau(   2) = (   0.5000000   0.5000000   0.0621126  )

     number of k points=    20  Marzari-Vanderbilt smearing, width (Ry)=  0.0500
                       cart. coord. in units 2pi/alat
        k(    1) = (   0.0000000   0.0000000   0.0000000), wk =   0.2000000
        k(    2) = (   0.0000000   0.0000000   2.3317814), wk =   0.0000000
        k(    3) = (   0.0000000   0.0000000   0.7772605), wk =   0.2000000
        k(    4) = (   0.0000000   0.0000000   3.1090419), wk =   0.0000000
        k(    5) = (   0.0000000   0.0000000   1.5545209), wk =   0.2000000
        k(    6) = (   0.0000000   0.0000000   3.8863023), wk =   0.0000000
        k(    7) = (   0.0000000   0.0000000   2.3317814), wk =   0.2000000
        k(    8) = (   0.0000000   0.0000000   4.6635628), wk =   0.0000000
        k(    9) = (   0.0000000   0.0000000   3.1090419), wk =   0.2000000
        k(   10) = (   0.0000000   0.0000000   5.4408233), wk =   0.0000000
        k(   11) = (   0.0000000   0.0000000  -3.8863023), wk =   0.2000000
        k(   12) = (   0.0000000   0.0000000  -1.5545209), wk =   0.0000000
        k(   13) = (   0.0000000   0.0000000  -0.7772605), wk =   0.2000000
        k(   14) = (   0.0000000   0.0000000   1.5545209), wk =   0.0000000
        k(   15) = (   0.0000000   0.0000000  -1.5545209), wk =   0.2000000
        k(   16) = (   0.0000000   0.0000000   0.7772605), wk =   0.0000000
        k(   17) = (   0.0000000   0.0000000  -2.3317814), wk =   0.2000000
        k(   18) = (   0.0000000   0.0000000   0.0000000), wk =   0.0000000
        k(   19) = (   0.0000000   0.0000000  -3.1090419), wk =   0.2000000
        k(   20) = (   0.0000000   0.0000000  -0.7772605), wk =   0.0000000

     Dense  grid:  1311607 G-vectors     FFT dimensions: ( 270, 270,  36)

     Smooth grid:   331329 G-vectors     FFT dimensions: ( 180, 180,  24)

     Estimated max dynamical RAM per process >     434.79 MB

     Estimated total dynamical RAM >      11.89 GB

     The potential is recalculated from file :
     ./outdir/_ph0/carbyne.q_4/carbyne.save/charge-density


     negative rho (up, down):  5.481E-04 0.000E+00
     Starting wfcs are    8 atomic wfcs
     Checking if some PAW data can be deallocated... 

     Band Structure Calculation
     Davidson diagonalization with overlap

     ethr =  1.25E-10,  avg # of iterations = 39.6

     total cpu time spent up to now is       51.0 secs

     End of band structure calculation

          k = 0.0000 0.0000 0.0000 ( 41667 PWs)   bands (ev):

   -21.2256 -14.0150 -10.2879 -10.2879  -0.5141   0.0855   0.1861   0.1861

          k = 0.0000 0.0000 2.3318 ( 41435 PWs)   bands (ev):

   -20.1041 -16.0120  -8.3751  -8.3751  -0.1782  -0.1782   1.4189   2.1157

          k = 0.0000 0.0000 0.7773 ( 41611 PWs)   bands (ev):

   -21.0975 -14.2820 -10.0741 -10.0741  -0.2972   0.3112   0.4128   0.4128

          k = 0.0000 0.0000 3.1090 ( 41327 PWs)   bands (ev):

   -19.2881 -17.1230  -6.9145  -6.9145  -2.7083  -2.7083   2.8741   3.6928

          k = 0.0000 0.0000 1.5545 ( 41579 PWs)   bands (ev):

   -20.7183 -15.0055  -9.4344  -9.4344   0.3507   0.9880   1.0924   1.0924

          k = 0.0000 0.0000 3.8863 ( 41178 PWs)   bands (ev):

   -18.5082 -18.0111  -5.4054  -5.4054  -4.5852  -4.5852   4.4700   4.7403

          k = 0.0000 0.0000 2.3318 ( 41435 PWs)   bands (ev):

   -20.1041 -16.0120  -8.3751  -8.3751  -0.1782  -0.1782   1.4189   2.1157

          k = 0.0000 0.0000 4.6636 ( 41327 PWs)   bands (ev):

   -19.2881 -17.1230  -6.9145  -6.9145  -2.7083  -2.7083   2.8741   3.6928

          k = 0.0000 0.0000 3.1090 ( 41327 PWs)   bands (ev):

   -19.2881 -17.1230  -6.9145  -6.9145  -2.7083  -2.7083   2.8741   3.6928

          k = 0.0000 0.0000 5.4408 ( 41435 PWs)   bands (ev):

   -20.1041 -16.0120  -8.3751  -8.3751  -0.1782  -0.1782   1.4189   2.1157

          k = 0.0000 0.0000-3.8863 ( 41178 PWs)   bands (ev):

   -18.5082 -18.0111  -5.4054  -5.4054  -4.5852  -4.5852   4.4700   4.7403

          k = 0.0000 0.0000-1.5545 ( 41579 PWs)   bands (ev):

   -20.7183 -15.0055  -9.4344  -9.4344   0.3507   0.9880   1.0924   1.0924

          k = 0.0000 0.0000-0.7773 ( 41611 PWs)   bands (ev):

   -21.0975 -14.2820 -10.0741 -10.0741  -0.2972   0.3112   0.4128   0.4128

          k = 0.0000 0.0000 1.5545 ( 41579 PWs)   bands (ev):

   -20.7183 -15.0055  -9.4344  -9.4344   0.3507   0.9880   1.0924   1.0924

          k = 0.0000 0.0000-1.5545 ( 41579 PWs)   bands (ev):

   -20.7183 -15.0055  -9.4344  -9.4344   0.3507   0.9880   1.0924   1.0924

          k = 0.0000 0.0000 0.7773 ( 41611 PWs)   bands (ev):

   -21.0975 -14.2820 -10.0741 -10.0741  -0.2972   0.3112   0.4128   0.4128

          k = 0.0000 0.0000-2.3318 ( 41435 PWs)   bands (ev):

   -20.1041 -16.0120  -8.3751  -8.3751  -0.1782  -0.1782   1.4189   2.1157

          k = 0.0000 0.0000 0.0000 ( 41667 PWs)   bands (ev):

   -21.2256 -14.0150 -10.2879 -10.2879  -0.5141   0.0855   0.1861   0.1861

          k = 0.0000 0.0000-3.1090 ( 41327 PWs)   bands (ev):

   -19.2881 -17.1230  -6.9145  -6.9145  -2.7083  -2.7083   2.8741   3.6928

          k = 0.0000 0.0000-0.7773 ( 41611 PWs)   bands (ev):

   -21.0975 -14.2820 -10.0741 -10.0741  -0.2972   0.3112   0.4128   0.4128

     the Fermi energy is    -4.9547 ev

     Writing output data file ./outdir/_ph0/carbyne.q_4/carbyne.save/

     Phonon of carbyne on a uniform q-grid                                      

     bravais-lattice index     =            0
     lattice parameter (alat)  =      37.7945  a.u.
     unit-cell volume          =    6945.7638 (a.u.)^3
     number of atoms/cell      =            2
     number of atomic types    =            1
     kinetic-energy cut-off    =      50.0000  Ry
     charge density cut-off    =     500.0000  Ry
     convergence threshold     =      1.0E-14
     beta                      =       0.7000
     number of iterations used =            4
     Exchange-correlation= PBE
                           (   1   4   3   4   0   0   0)


     celldm(1)=   37.79452  celldm(2)=    0.00000  celldm(3)=    0.00000
     celldm(4)=    0.00000  celldm(5)=    0.00000  celldm(6)=    0.00000

     crystal axes: (cart. coord. in units of alat)
               a(1) = (  1.0000  0.0000  0.0000 )  
               a(2) = (  0.0000  1.0000  0.0000 )  
               a(3) = (  0.0000  0.0000  0.1287 )  

     reciprocal axes: (cart. coord. in units 2 pi/alat)
               b(1) = (  1.0000  0.0000  0.0000 )  
               b(2) = (  0.0000  1.0000  0.0000 )  
               b(3) = (  0.0000  0.0000  7.7726 )  


     Atoms inside the unit cell: 

     Cartesian axes

     site n.  atom      mass           positions (alat units)
        1     C   12.0107   tau(    1) = (    0.50000    0.50000    0.00000  )
        2     C   12.0107   tau(    2) = (    0.50000    0.50000    0.06211  )

     Computing dynamical matrix for 
                    q = (   0.0000000   0.0000000   2.3317814 )
 
      8 Sym.Ops. (no q -> -q+G )


     G cutoff =18091.2258  (1311607 G-vectors)     FFT grid: (270,270, 36)
     G cutoff = 7236.4903  ( 331329 G-vectors)  smooth grid: (180,180, 24)

     number of k points=    20  Marzari-Vanderbilt smearing, width (Ry)=  0.0500

     PseudoPot. # 1 for C  read from file:
     ./pseudopot/C.pbe-n-kjpaw_psl.1.0.0.UPF
     MD5 check sum: 6fec8efd722f5d988670a8dc528584a2
     Pseudo is Projector augmented-wave + core cor, Zval =  4.0
     Generated using "atomic" code by A. Dal Corso  v.5.1.2
     Shape of augmentation charge: PSQ
     Using radial grid of 1073 points,  4 beta functions with: 
                l(1) =   0
                l(2) =   0
                l(3) =   1
                l(4) =   1
     Q(r) pseudized with 0 coefficients 


     Mode symmetry, C_4v (4mm)  point group:


     Atomic displacements:
     There are    4 irreducible representations

     Representation     1      1 modes -  To be done

     Representation     2      1 modes -  To be done

     Representation     3      2 modes -  To be done

     Representation     4      2 modes -  To be done



     Alpha used in Ewald sum =   2.8000

     negative rho (up, down):  5.481E-04 0.000E+00
     PHONON       :  35m21.55s CPU  27m47.72s WALL



     Representation #   1 mode #   1

     Self-consistent Calculation

      iter #   1 total cpu time :  1677.9 secs   av.it.:   6.2
      thresh= 1.000E-02 alpha_mix =  0.700 |ddv_scf|^2 =  5.591E-08

      iter #   2 total cpu time :  1690.5 secs   av.it.:  12.5
      thresh= 2.364E-05 alpha_mix =  0.700 |ddv_scf|^2 =  2.279E-07

      iter #   3 total cpu time :  1703.0 secs   av.it.:  11.5
      thresh= 4.773E-05 alpha_mix =  0.700 |ddv_scf|^2 =  2.961E-09

      iter #   4 total cpu time :  1715.8 secs   av.it.:  12.2
      thresh= 5.442E-06 alpha_mix =  0.700 |ddv_scf|^2 =  1.095E-09

      iter #   5 total cpu time :  1729.5 secs   av.it.:  12.1
      thresh= 3.309E-06 alpha_mix =  0.700 |ddv_scf|^2 =  3.562E-13

      iter #   6 total cpu time :  1740.3 secs   av.it.:  11.9
      thresh= 5.968E-08 alpha_mix =  0.700 |ddv_scf|^2 =  9.153E-15

     End of self-consistent calculation

     Convergence has been achieved 


     Representation #   2 mode #   2

     Self-consistent Calculation

      iter #   1 total cpu time :  1759.0 secs   av.it.:   6.2
      thresh= 1.000E-02 alpha_mix =  0.700 |ddv_scf|^2 =  5.296E-08

      iter #   2 total cpu time :  1771.3 secs   av.it.:  12.5
      thresh= 2.301E-05 alpha_mix =  0.700 |ddv_scf|^2 =  2.279E-07

      iter #   3 total cpu time :  1783.8 secs   av.it.:  11.5
      thresh= 4.774E-05 alpha_mix =  0.700 |ddv_scf|^2 =  2.678E-09

      iter #   4 total cpu time :  1796.6 secs   av.it.:  12.2
      thresh= 5.175E-06 alpha_mix =  0.700 |ddv_scf|^2 =  9.803E-10

      iter #   5 total cpu time :  1810.6 secs   av.it.:  12.1
      thresh= 3.131E-06 alpha_mix =  0.700 |ddv_scf|^2 =  1.099E-12

      iter #   6 total cpu time :  1821.5 secs   av.it.:  11.9
      thresh= 1.048E-07 alpha_mix =  0.700 |ddv_scf|^2 =  9.884E-15

     End of self-consistent calculation

     Convergence has been achieved 


     Representation #   3 modes #   3   4

     Self-consistent Calculation

      iter #   1 total cpu time :  1843.8 secs   av.it.:   5.7
      thresh= 1.000E-02 alpha_mix =  0.700 |ddv_scf|^2 =  5.538E-09

      iter #   2 total cpu time :  1865.4 secs   av.it.:  12.3
      thresh= 7.442E-06 alpha_mix =  0.700 |ddv_scf|^2 =  4.331E-10

      iter #   3 total cpu time :  1888.1 secs   av.it.:  11.6
      thresh= 2.081E-06 alpha_mix =  0.700 |ddv_scf|^2 =  7.463E-12

      iter #   4 total cpu time :  1907.5 secs   av.it.:  12.5
      thresh= 2.732E-07 alpha_mix =  0.700 |ddv_scf|^2 =  3.798E-15

     End of self-consistent calculation

     Convergence has been achieved 


     Representation #   4 modes #   5   6

     Self-consistent Calculation

      iter #   1 total cpu time :  1933.5 secs   av.it.:   5.7
      thresh= 1.000E-02 alpha_mix =  0.700 |ddv_scf|^2 =  5.355E-09

      iter #   2 total cpu time :  1955.0 secs   av.it.:  12.4
      thresh= 7.318E-06 alpha_mix =  0.700 |ddv_scf|^2 =  5.871E-10

      iter #   3 total cpu time :  1976.8 secs   av.it.:  11.6
      thresh= 2.423E-06 alpha_mix =  0.700 |ddv_scf|^2 =  4.042E-12

      iter #   4 total cpu time :  2000.5 secs   av.it.:  13.1
      thresh= 2.011E-07 alpha_mix =  0.700 |ddv_scf|^2 =  2.563E-14

      iter #   5 total cpu time :  2019.5 secs   av.it.:  12.1
      thresh= 1.601E-08 alpha_mix =  0.700 |ddv_scf|^2 =  3.656E-16

     End of self-consistent calculation

     Convergence has been achieved 
 
     Number of q in the star =    1
     List of q in the star:
          1   0.000000000   0.000000000   2.331781403
     In addition there is the -q list: 
          1   0.000000000   0.000000000  -2.331781403

     Diagonalizing the dynamical matrix

     q = (    0.000000000   0.000000000   2.331781403 ) 

 **************************************************************************
     freq (    1) =       4.618276 [THz] =     154.049097 [cm-1]
     freq (    2) =       4.618276 [THz] =     154.049097 [cm-1]
     freq (    3) =      13.816599 [THz] =     460.872125 [cm-1]
     freq (    4) =      13.816599 [THz] =     460.872125 [cm-1]
     freq (    5) =      33.943517 [THz] =    1132.233856 [cm-1]
     freq (    6) =      65.306499 [THz] =    2178.390320 [cm-1]
 **************************************************************************

     Mode symmetry, C_4v (4mm)  point group:

     freq (   1-   2) =        154.0  [cm-1]   --> E    G_5 D_5       
     freq (   3-   4) =        460.9  [cm-1]   --> E    G_5 D_5       
     freq (   5-   5) =       1132.2  [cm-1]   --> A_1  G_1 D_1       
     freq (   6-   6) =       2178.4  [cm-1]   --> A_1  G_1 D_1       
     electron-phonon interaction  ...

     Gaussian Broadening:   0.005 Ry, ngauss=   0
     DOS =  0.000000 states/spin/Ry/Unit Cell at Ef= -4.962847 eV
     lambda(    1)=  0.0000   gamma=    0.00 GHz
     lambda(    2)=  0.0000   gamma=    0.00 GHz
     lambda(    3)=  0.0000   gamma=    0.00 GHz
     lambda(    4)=  0.0000   gamma=    0.00 GHz
     lambda(    5)=  0.0000   gamma=    0.00 GHz
     lambda(    6)=  0.0000   gamma=    0.00 GHz
     Gaussian Broadening:   0.010 Ry, ngauss=   0
     DOS =  0.002559 states/spin/Ry/Unit Cell at Ef= -4.995291 eV
     lambda(    1)=  0.0000   gamma=    0.00 GHz
     lambda(    2)=  0.0000   gamma=    0.00 GHz
     lambda(    3)=  0.0000   gamma=    0.00 GHz
     lambda(    4)=  0.0000   gamma=    0.00 GHz
     lambda(    5)=  0.0000   gamma=    0.00 GHz
     lambda(    6)=  0.0000   gamma=    0.00 GHz
     Gaussian Broadening:   0.015 Ry, ngauss=   0
     DOS =  0.265398 states/spin/Ry/Unit Cell at Ef= -4.995291 eV
     lambda(    1)=  0.0000   gamma=    0.00 GHz
     lambda(    2)=  0.0000   gamma=    0.00 GHz
     lambda(    3)=  0.0000   gamma=    0.00 GHz
     lambda(    4)=  0.0000   gamma=    0.00 GHz
     lambda(    5)=  0.0000   gamma=    0.00 GHz
     lambda(    6)=  0.0000   gamma=    0.00 GHz
     Gaussian Broadening:   0.020 Ry, ngauss=   0
     DOS =  1.164430 states/spin/Ry/Unit Cell at Ef= -4.995291 eV
     lambda(    1)=  0.0000   gamma=    0.00 GHz
     lambda(    2)=  0.0000   gamma=    0.00 GHz
     lambda(    3)=  0.0000   gamma=    0.00 GHz
     lambda(    4)=  0.0000   gamma=    0.00 GHz
     lambda(    5)=  0.0000   gamma=    0.00 GHz
     lambda(    6)=  0.0000   gamma=    0.00 GHz
     Gaussian Broadening:   0.025 Ry, ngauss=   0
     DOS =  2.110019 states/spin/Ry/Unit Cell at Ef= -4.995291 eV
     lambda(    1)=  0.0000   gamma=    0.00 GHz
     lambda(    2)=  0.0000   gamma=    0.00 GHz
     lambda(    3)=  0.0000   gamma=    0.00 GHz
     lambda(    4)=  0.0000   gamma=    0.00 GHz
     lambda(    5)=  0.0000   gamma=    0.00 GHz
     lambda(    6)=  0.0000   gamma=    0.00 GHz
     Gaussian Broadening:   0.030 Ry, ngauss=   0
     DOS =  2.741510 states/spin/Ry/Unit Cell at Ef= -4.995291 eV
     lambda(    1)=  0.0000   gamma=    0.00 GHz
     lambda(    2)=  0.0000   gamma=    0.00 GHz
     lambda(    3)=  0.0000   gamma=    0.00 GHz
     lambda(    4)=  0.0000   gamma=    0.00 GHz
     lambda(    5)=  0.0000   gamma=    0.00 GHz
     lambda(    6)=  0.0000   gamma=    0.00 GHz
     Gaussian Broadening:   0.035 Ry, ngauss=   0
     DOS =  3.071471 states/spin/Ry/Unit Cell at Ef= -4.995291 eV
     lambda(    1)=  0.0000   gamma=    0.00 GHz
     lambda(    2)=  0.0000   gamma=    0.00 GHz
     lambda(    3)=  0.0000   gamma=    0.00 GHz
     lambda(    4)=  0.0000   gamma=    0.00 GHz
     lambda(    5)=  0.0000   gamma=    0.00 GHz
     lambda(    6)=  0.0000   gamma=    0.00 GHz
     Gaussian Broadening:   0.040 Ry, ngauss=   0
     DOS =  3.197737 states/spin/Ry/Unit Cell at Ef= -4.995290 eV
     lambda(    1)=  0.0000   gamma=    0.00 GHz
     lambda(    2)=  0.0000   gamma=    0.00 GHz
     lambda(    3)=  0.0000   gamma=    0.00 GHz
     lambda(    4)=  0.0000   gamma=    0.00 GHz
     lambda(    5)=  0.0000   gamma=    0.00 GHz
     lambda(    6)=  0.0000   gamma=    0.00 GHz
     Gaussian Broadening:   0.045 Ry, ngauss=   0
     DOS =  3.202410 states/spin/Ry/Unit Cell at Ef= -4.995283 eV
     lambda(    1)=  0.0000   gamma=    0.00 GHz
     lambda(    2)=  0.0000   gamma=    0.00 GHz
     lambda(    3)=  0.0000   gamma=    0.00 GHz
     lambda(    4)=  0.0000   gamma=    0.00 GHz
     lambda(    5)=  0.0000   gamma=    0.00 GHz
     lambda(    6)=  0.0000   gamma=    0.00 GHz
     Gaussian Broadening:   0.050 Ry, ngauss=   0
     DOS =  3.139975 states/spin/Ry/Unit Cell at Ef= -4.995235 eV
     lambda(    1)=  0.0000   gamma=    0.00 GHz
     lambda(    2)=  0.0000   gamma=    0.00 GHz
     lambda(    3)=  0.0000   gamma=    0.00 GHz
     lambda(    4)=  0.0000   gamma=    0.00 GHz
     lambda(    5)=  0.0000   gamma=    0.00 GHz
     lambda(    6)=  0.0000   gamma=    0.00 GHz
 
 
     Number of q in the star =    1
     List of q in the star:
          1   0.000000000   0.000000000   2.331781403
     In addition there is the -q list: 
          1   0.000000000   0.000000000  -2.331781403

     Calculation of q =    0.0000000   0.0000000   3.1090419
     Message from routine divide_et_impera:
     suboptimal parallelization: some nodes have no k-points
 
     G-vector sticks info
     --------------------
     sticks:   dense  smooth     PW     G-vecs:    dense   smooth      PW
     Sum       56853   22733   7441              1311607   331329   62573
 

     Title: 
     Phonon of carbyne on a uniform q-grid                                      


     bravais-lattice index     =            0
     lattice parameter (alat)  =      37.7945  a.u.
     unit-cell volume          =    6945.7638 (a.u.)^3
     number of atoms/cell      =            2
     number of atomic types    =            1
     number of electrons       =         8.00
     number of Kohn-Sham states=            8
     kinetic-energy cutoff     =      50.0000  Ry
     charge density cutoff     =     500.0000  Ry
     Exchange-correlation= PBE
                           (   1   4   3   4   0   0   0)

     celldm(1)=  37.794522  celldm(2)=   0.000000  celldm(3)=   0.000000
     celldm(4)=   0.000000  celldm(5)=   0.000000  celldm(6)=   0.000000

     crystal axes: (cart. coord. in units of alat)
               a(1) = (   1.000000   0.000000   0.000000 )  
               a(2) = (   0.000000   1.000000   0.000000 )  
               a(3) = (   0.000000   0.000000   0.128657 )  

     reciprocal axes: (cart. coord. in units 2 pi/alat)
               b(1) = (  1.000000  0.000000  0.000000 )  
               b(2) = (  0.000000  1.000000  0.000000 )  
               b(3) = (  0.000000  0.000000  7.772605 )  


     PseudoPot. # 1 for C  read from file:
     ./pseudopot/C.pbe-n-kjpaw_psl.1.0.0.UPF
     MD5 check sum: 6fec8efd722f5d988670a8dc528584a2
     Pseudo is Projector augmented-wave + core cor, Zval =  4.0
     Generated using "atomic" code by A. Dal Corso  v.5.1.2
     Shape of augmentation charge: PSQ
     Using radial grid of 1073 points,  4 beta functions with: 
                l(1) =   0
                l(2) =   0
                l(3) =   1
                l(4) =   1
     Q(r) pseudized with 0 coefficients 


     atomic species   valence    mass     pseudopotential
        C              4.00    12.01070     C ( 1.00)

      8 Sym. Ops. (no inversion) found



   Cartesian axes

     site n.     atom                  positions (alat units)
         1           C   tau(   1) = (   0.5000000   0.5000000   0.0000000  )
         2           C   tau(   2) = (   0.5000000   0.5000000   0.0621126  )

     number of k points=    20  Marzari-Vanderbilt smearing, width (Ry)=  0.0500
                       cart. coord. in units 2pi/alat
        k(    1) = (   0.0000000   0.0000000   0.0000000), wk =   0.2000000
        k(    2) = (   0.0000000   0.0000000   3.1090419), wk =   0.0000000
        k(    3) = (   0.0000000   0.0000000   0.7772605), wk =   0.2000000
        k(    4) = (   0.0000000   0.0000000   3.8863023), wk =   0.0000000
        k(    5) = (   0.0000000   0.0000000   1.5545209), wk =   0.2000000
        k(    6) = (   0.0000000   0.0000000   4.6635628), wk =   0.0000000
        k(    7) = (   0.0000000   0.0000000   2.3317814), wk =   0.2000000
        k(    8) = (   0.0000000   0.0000000   5.4408233), wk =   0.0000000
        k(    9) = (   0.0000000   0.0000000   3.1090419), wk =   0.2000000
        k(   10) = (   0.0000000   0.0000000   6.2180837), wk =   0.0000000
        k(   11) = (   0.0000000   0.0000000  -3.8863023), wk =   0.2000000
        k(   12) = (   0.0000000   0.0000000  -0.7772605), wk =   0.0000000
        k(   13) = (   0.0000000   0.0000000  -0.7772605), wk =   0.2000000
        k(   14) = (   0.0000000   0.0000000   2.3317814), wk =   0.0000000
        k(   15) = (   0.0000000   0.0000000  -1.5545209), wk =   0.2000000
        k(   16) = (   0.0000000   0.0000000   1.5545209), wk =   0.0000000
        k(   17) = (   0.0000000   0.0000000  -2.3317814), wk =   0.2000000
[...]

     Band Structure Calculation
     Davidson diagonalization with overlap

     ethr =  1.25E-10,  avg # of iterations = 39.0

     total cpu time spent up to now is       81.2 secs

     End of band structure calculation

          k = 0.0000 0.0000 0.0000 ( 41667 PWs)   bands (ev):

   -21.2256 -14.0150 -10.2879 -10.2879  -0.5141   0.0855   0.1861   0.1861

          k = 0.0000 0.0000-3.8863 ( 41178 PWs)   bands (ev):

   -18.5082 -18.0111  -5.4054  -5.4054  -4.5852  -4.5852   4.4700   4.7403

          k = 0.0000 0.0000 0.7773 ( 41611 PWs)   bands (ev):

   -21.0975 -14.2820 -10.0741 -10.0741  -0.2972   0.3112   0.4128   0.4128

          k = 0.0000 0.0000-3.1090 ( 41327 PWs)   bands (ev):

   -19.2881 -17.1230  -6.9145  -6.9145  -2.7083  -2.7083   2.8741   3.6928

          k = 0.0000 0.0000 1.5545 ( 41579 PWs)   bands (ev):

   -20.7183 -15.0055  -9.4344  -9.4344   0.3507   0.9880   1.0924   1.0924

          k = 0.0000 0.0000-2.3318 ( 41435 PWs)   bands (ev):

   -20.1041 -16.0120  -8.3751  -8.3751  -0.1782  -0.1782   1.4189   2.1157

          k = 0.0000 0.0000 2.3318 ( 41435 PWs)   bands (ev):

   -20.1041 -16.0120  -8.3751  -8.3751  -0.1782  -0.1782   1.4189   2.1157

          k = 0.0000 0.0000-1.5545 ( 41579 PWs)   bands (ev):

   -20.7183 -15.0055  -9.4344  -9.4344   0.3507   0.9880   1.0924   1.0924

          k = 0.0000 0.0000 3.1090 ( 41327 PWs)   bands (ev):

   -19.2881 -17.1230  -6.9145  -6.9145  -2.7083  -2.7083   2.8741   3.6928

          k = 0.0000 0.0000-0.7773 ( 41611 PWs)   bands (ev):

   -21.0975 -14.2820 -10.0741 -10.0741  -0.2972   0.3112   0.4128   0.4128

          k = 0.0000 0.0000-3.8863 ( 41178 PWs)   bands (ev):

   -18.5082 -18.0111  -5.4054  -5.4054  -4.5852  -4.5852   4.4700   4.7403

          k = 0.0000 0.0000-7.7726 ( 41667 PWs)   bands (ev):

   -21.2256 -14.0150 -10.2879 -10.2879  -0.5141   0.0855   0.1861   0.1861

     the Fermi energy is    -4.9547 ev

     Writing output data file ./outdir/_ph0/carbyne.q_6/carbyne.save/

     Phonon of carbyne on a uniform q-grid                                      

     bravais-lattice index     =            0
     lattice parameter (alat)  =      37.7945  a.u.
     unit-cell volume          =    6945.7638 (a.u.)^3
     number of atoms/cell      =            2
     number of atomic types    =            1
     kinetic-energy cut-off    =      50.0000  Ry
     charge density cut-off    =     500.0000  Ry
     convergence threshold     =      1.0E-14
     beta                      =       0.7000
     number of iterations used =            4
     Exchange-correlation= PBE
                           (   1   4   3   4   0   0   0)


     celldm(1)=   37.79452  celldm(2)=    0.00000  celldm(3)=    0.00000
     celldm(4)=    0.00000  celldm(5)=    0.00000  celldm(6)=    0.00000

     crystal axes: (cart. coord. in units of alat)
               a(1) = (  1.0000  0.0000  0.0000 )  
               a(2) = (  0.0000  1.0000  0.0000 )  
               a(3) = (  0.0000  0.0000  0.1287 )  

     reciprocal axes: (cart. coord. in units 2 pi/alat)
               b(1) = (  1.0000  0.0000  0.0000 )  
               b(2) = (  0.0000  1.0000  0.0000 )  
               b(3) = (  0.0000  0.0000  7.7726 )  


     Atoms inside the unit cell: 

     Cartesian axes

     site n.  atom      mass           positions (alat units)
        1     C   12.0107   tau(    1) = (    0.50000    0.50000    0.00000  )
        2     C   12.0107   tau(    2) = (    0.50000    0.50000    0.06211  )

     Computing dynamical matrix for 
                    q = (   0.0000000   0.0000000  -3.8863023 )
 
      9 Sym.Ops. (with q -> -q+G )


     G cutoff =18091.2258  (1311607 G-vectors)     FFT grid: (270,270, 36)
     G cutoff = 7236.4903  ( 331329 G-vectors)  smooth grid: (180,180, 24)

     number of k points=    12  Marzari-Vanderbilt smearing, width (Ry)=  0.0500

     PseudoPot. # 1 for C  read from file:
     ./pseudopot/C.pbe-n-kjpaw_psl.1.0.0.UPF
     MD5 check sum: 6fec8efd722f5d988670a8dc528584a2
     Pseudo is Projector augmented-wave + core cor, Zval =  4.0
     Generated using "atomic" code by A. Dal Corso  v.5.1.2
     Shape of augmentation charge: PSQ
     Using radial grid of 1073 points,  4 beta functions with: 
                l(1) =   0
                l(2) =   0
                l(3) =   1
                l(4) =   1
     Q(r) pseudized with 0 coefficients 


     Mode symmetry, C_4v (4mm)  point group:


     Atomic displacements:
     There are    4 irreducible representations

     Representation     1      1 modes -  To be done

     Representation     2      1 modes -  To be done

     Representation     3      2 modes -  To be done

     Representation     4      2 modes -  To be done



     Alpha used in Ewald sum =   2.8000

     negative rho (up, down):  5.481E-04 0.000E+00
     PHONON       :  56m 6.04s CPU  43m52.45s WALL



     Representation #   1 mode #   1

     Self-consistent Calculation

      iter #   1 total cpu time :  2642.4 secs   av.it.:   6.0
      thresh= 1.000E-02 alpha_mix =  0.700 |ddv_scf|^2 =  5.762E-08

      iter #   2 total cpu time :  2654.3 secs   av.it.:  12.5
      thresh= 2.400E-05 alpha_mix =  0.700 |ddv_scf|^2 =  7.357E-08

      iter #   3 total cpu time :  2666.9 secs   av.it.:  12.0
      thresh= 2.712E-05 alpha_mix =  0.700 |ddv_scf|^2 =  6.744E-09

      iter #   4 total cpu time :  2679.5 secs   av.it.:  12.0
      thresh= 8.212E-06 alpha_mix =  0.700 |ddv_scf|^2 =  2.170E-09

      iter #   5 total cpu time :  2692.9 secs   av.it.:  11.8
      thresh= 4.658E-06 alpha_mix =  0.700 |ddv_scf|^2 =  1.022E-13

      iter #   6 total cpu time :  2707.5 secs   av.it.:  12.2
      thresh= 3.197E-08 alpha_mix =  0.700 |ddv_scf|^2 =  1.185E-14

      iter #   7 total cpu time :  2718.1 secs   av.it.:  11.3
      thresh= 1.088E-08 alpha_mix =  0.700 |ddv_scf|^2 =  2.168E-16

     End of self-consistent calculation

     Convergence has been achieved 


     Representation #   2 mode #   2

     Self-consistent Calculation

      iter #   1 total cpu time :  2733.3 secs   av.it.:   6.0
      thresh= 1.000E-02 alpha_mix =  0.700 |ddv_scf|^2 =  4.945E-08

      iter #   2 total cpu time :  2745.2 secs   av.it.:  12.5
      thresh= 2.224E-05 alpha_mix =  0.700 |ddv_scf|^2 =  7.346E-08

      iter #   3 total cpu time :  2757.8 secs   av.it.:  12.0
      thresh= 2.710E-05 alpha_mix =  0.700 |ddv_scf|^2 =  4.263E-09

      iter #   4 total cpu time :  2770.5 secs   av.it.:  12.2
      thresh= 6.529E-06 alpha_mix =  0.700 |ddv_scf|^2 =  2.083E-09

      iter #   5 total cpu time :  2784.0 secs   av.it.:  11.8
      thresh= 4.565E-06 alpha_mix =  0.700 |ddv_scf|^2 =  2.036E-13

      iter #   6 total cpu time :  2794.6 secs   av.it.:  12.0
      thresh= 4.512E-08 alpha_mix =  0.700 |ddv_scf|^2 =  1.178E-15

     End of self-consistent calculation

     Convergence has been achieved 


     Representation #   3 modes #   3   4

     Self-consistent Calculation

      iter #   1 total cpu time :  2815.5 secs   av.it.:   5.7
      thresh= 1.000E-02 alpha_mix =  0.700 |ddv_scf|^2 =  9.064E-09

      iter #   2 total cpu time :  2836.1 secs   av.it.:  12.0
      thresh= 9.521E-06 alpha_mix =  0.700 |ddv_scf|^2 =  7.957E-10

      iter #   3 total cpu time :  2856.9 secs   av.it.:  10.3
      thresh= 2.821E-06 alpha_mix =  0.700 |ddv_scf|^2 =  3.105E-13

      iter #   4 total cpu time :  2875.2 secs   av.it.:  13.2
      thresh= 5.572E-08 alpha_mix =  0.700 |ddv_scf|^2 =  2.571E-15

     End of self-consistent calculation

     Convergence has been achieved 


     Representation #   4 modes #   5   6

     Self-consistent Calculation

      iter #   1 total cpu time :  2900.5 secs   av.it.:   5.7
      thresh= 1.000E-02 alpha_mix =  0.700 |ddv_scf|^2 =  9.555E-09

      iter #   2 total cpu time :  2921.3 secs   av.it.:  12.0
      thresh= 9.775E-06 alpha_mix =  0.700 |ddv_scf|^2 =  9.071E-10

      iter #   3 total cpu time :  2942.2 secs   av.it.:  10.3
      thresh= 3.012E-06 alpha_mix =  0.700 |ddv_scf|^2 =  1.829E-13

      iter #   4 total cpu time :  2965.0 secs   av.it.:  13.3
      thresh= 4.276E-08 alpha_mix =  0.700 |ddv_scf|^2 =  1.328E-14

      iter #   5 total cpu time :  2983.3 secs   av.it.:  11.8
      thresh= 1.152E-08 alpha_mix =  0.700 |ddv_scf|^2 =  7.658E-17

     End of self-consistent calculation

     Convergence has been achieved 
 
     Number of q in the star =    1
     List of q in the star:
          1   0.000000000   0.000000000  -3.886302339

     Diagonalizing the dynamical matrix

     q = (    0.000000000   0.000000000  -3.886302339 ) 

 **************************************************************************
     freq (    1) =       8.918509 [THz] =     297.489428 [cm-1]
     freq (    2) =       8.918509 [THz] =     297.489428 [cm-1]
     freq (    3) =      11.418668 [THz] =     380.885770 [cm-1]
     freq (    4) =      11.418668 [THz] =     380.885770 [cm-1]
     freq (    5) =      47.362314 [THz] =    1579.836745 [cm-1]
     freq (    6) =      59.754954 [THz] =    1993.210702 [cm-1]
 **************************************************************************

     Mode symmetry, C_4v (4mm)  point group:

     freq (   1-   2) =        297.5  [cm-1]   --> E    G_5 D_5       
     freq (   3-   4) =        380.9  [cm-1]   --> E    G_5 D_5       
     freq (   5-   5) =       1579.8  [cm-1]   --> A_1  G_1 D_1       
     freq (   6-   6) =       1993.2  [cm-1]   --> A_1  G_1 D_1       
     electron-phonon interaction  ...

     Gaussian Broadening:   0.005 Ry, ngauss=   0
     DOS =  0.000000 states/spin/Ry/Unit Cell at Ef= -4.962847 eV
     lambda(    1)=  0.0000   gamma=    0.00 GHz
     lambda(    2)=  0.0000   gamma=    0.00 GHz
     lambda(    3)=  0.0000   gamma=    0.00 GHz
     lambda(    4)=  0.0000   gamma=    0.00 GHz
     lambda(    5)=  0.0000   gamma=    0.00 GHz
     lambda(    6)=  0.0000   gamma=    0.00 GHz
     Gaussian Broadening:   0.010 Ry, ngauss=   0
     DOS =  0.002559 states/spin/Ry/Unit Cell at Ef= -4.995291 eV
     lambda(    1)=  0.0000   gamma=    0.00 GHz
     lambda(    2)=  0.0000   gamma=    0.00 GHz
     lambda(    3)=  0.0000   gamma=    0.00 GHz
     lambda(    4)=  0.0000   gamma=    0.00 GHz
     lambda(    5)=  0.0000   gamma=    0.00 GHz
     lambda(    6)=  0.0000   gamma=    0.00 GHz
     Gaussian Broadening:   0.015 Ry, ngauss=   0
     DOS =  0.265398 states/spin/Ry/Unit Cell at Ef= -4.995291 eV
     lambda(    1)=  0.0000   gamma=    0.00 GHz
     lambda(    2)=  0.0000   gamma=    0.00 GHz
     lambda(    3)=  0.0000   gamma=    0.00 GHz
     lambda(    4)=  0.0000   gamma=    0.00 GHz
     lambda(    5)=  0.0000   gamma=    0.00 GHz
     lambda(    6)=  0.0000   gamma=    0.00 GHz
     Gaussian Broadening:   0.020 Ry, ngauss=   0
     DOS =  1.164430 states/spin/Ry/Unit Cell at Ef= -4.995291 eV
     lambda(    1)=  0.0000   gamma=    0.00 GHz
     lambda(    2)=  0.0000   gamma=    0.00 GHz
     lambda(    3)=  0.0000   gamma=    0.00 GHz
     lambda(    4)=  0.0000   gamma=    0.00 GHz
     lambda(    5)=  0.0000   gamma=    0.00 GHz
     lambda(    6)=  0.0000   gamma=    0.00 GHz
     Gaussian Broadening:   0.025 Ry, ngauss=   0
     DOS =  2.110019 states/spin/Ry/Unit Cell at Ef= -4.995291 eV
     lambda(    1)=  0.0000   gamma=    0.00 GHz
     lambda(    2)=  0.0000   gamma=    0.00 GHz
     lambda(    3)=  0.0000   gamma=    0.00 GHz
     lambda(    4)=  0.0000   gamma=    0.00 GHz
     lambda(    5)=  0.0000   gamma=    0.00 GHz
     lambda(    6)=  0.0000   gamma=    0.00 GHz
     Gaussian Broadening:   0.030 Ry, ngauss=   0
     DOS =  2.741510 states/spin/Ry/Unit Cell at Ef= -4.995291 eV
     lambda(    1)=  0.0000   gamma=    0.00 GHz
     lambda(    2)=  0.0000   gamma=    0.00 GHz
     lambda(    3)=  0.0000   gamma=    0.00 GHz
     lambda(    4)=  0.0000   gamma=    0.00 GHz
     lambda(    5)=  0.0000   gamma=    0.00 GHz
     lambda(    6)=  0.0000   gamma=    0.00 GHz
     Gaussian Broadening:   0.035 Ry, ngauss=   0
     DOS =  3.071471 states/spin/Ry/Unit Cell at Ef= -4.995291 eV
     lambda(    1)=  0.0000   gamma=    0.00 GHz
     lambda(    2)=  0.0000   gamma=    0.00 GHz
     lambda(    3)=  0.0000   gamma=    0.00 GHz
     lambda(    4)=  0.0000   gamma=    0.00 GHz
     lambda(    5)=  0.0000   gamma=    0.00 GHz
     lambda(    6)=  0.0000   gamma=    0.00 GHz
     Gaussian Broadening:   0.040 Ry, ngauss=   0
     DOS =  3.197737 states/spin/Ry/Unit Cell at Ef= -4.995290 eV
     lambda(    1)=  0.0000   gamma=    0.00 GHz
     lambda(    2)=  0.0000   gamma=    0.00 GHz
     lambda(    3)=  0.0000   gamma=    0.00 GHz
     lambda(    4)=  0.0000   gamma=    0.00 GHz
     lambda(    5)=  0.0000   gamma=    0.00 GHz
     lambda(    6)=  0.0000   gamma=    0.00 GHz
     Gaussian Broadening:   0.045 Ry, ngauss=   0
     DOS =  3.202410 states/spin/Ry/Unit Cell at Ef= -4.995283 eV
     lambda(    1)=  0.0000   gamma=    0.00 GHz
     lambda(    2)=  0.0000   gamma=    0.00 GHz
     lambda(    3)=  0.0000   gamma=    0.00 GHz
     lambda(    4)=  0.0000   gamma=    0.00 GHz
     lambda(    5)=  0.0000   gamma=    0.00 GHz
     lambda(    6)=  0.0000   gamma=    0.00 GHz
     Gaussian Broadening:   0.050 Ry, ngauss=   0
     DOS =  3.139975 states/spin/Ry/Unit Cell at Ef= -4.995235 eV
     lambda(    1)=  0.0000   gamma=    0.00 GHz
     lambda(    2)=  0.0000   gamma=    0.00 GHz
     lambda(    3)=  0.0000   gamma=    0.00 GHz
     lambda(    4)=  0.0000   gamma=    0.00 GHz
     lambda(    5)=  0.0000   gamma=    0.00 GHz
     lambda(    6)=  0.0000   gamma=    0.00 GHz
 
 
     Number of q in the star =    1
     List of q in the star:
          1   0.000000000   0.000000000  -3.886302339
 
     init_run     :     26.45s CPU     21.33s WALL (       5 calls)
     electrons    :    110.78s CPU     58.83s WALL (       5 calls)

     Called by init_run:
     wfcinit      :      0.00s CPU      0.13s WALL (       5 calls)
     potinit      :     11.94s CPU      9.99s WALL (       5 calls)
     hinit0       :      8.63s CPU      4.99s WALL (       5 calls)

     Called by electrons:
     c_bands      :    110.73s CPU     58.74s WALL (       5 calls)
     v_of_rho     :     11.03s CPU      8.51s WALL (       6 calls)
     newd         :      1.70s CPU      1.61s WALL (       6 calls)
     PAW_pot      :      0.47s CPU      0.59s WALL (       6 calls)

     Called by c_bands:
     init_us_2    :      3.19s CPU      6.06s WALL (     218 calls)
     cegterg      :    102.56s CPU     52.29s WALL (      27 calls)

     Called by *egterg:
     cdiaghg      :      1.36s CPU      2.26s WALL (     428 calls)
     h_psi        :    538.72s CPU    273.58s WALL (    2701 calls)
     s_psi        :     31.82s CPU     16.44s WALL (    5136 calls)
     g_psi        :      0.61s CPU      0.30s WALL (     418 calls)

     Called by h_psi:
     h_psi:calbec :     16.60s CPU      9.08s WALL (    2701 calls)
     vloc_psi     :    499.95s CPU    252.93s WALL (    2701 calls)
     add_vuspsi   :     16.79s CPU      8.71s WALL (    2701 calls)

     General routines
     calbec       :     32.62s CPU     20.12s WALL (    5589 calls)
     fft          :    187.78s CPU    178.95s WALL (    3869 calls)
     ffts         :      6.24s CPU      6.02s WALL (     661 calls)
     fftw         :    403.17s CPU    214.11s WALL (   24256 calls)
     interpolate  :     33.46s CPU     38.15s WALL (     429 calls)
     davcio       :      6.96s CPU    226.66s WALL (    1861 calls)
 
     Parallel routines
 
     PHONON       :      1h 3m CPU  49m52.46s WALL

     INITIALIZATION: 
     phq_setup    :     15.14s CPU     12.63s WALL (       6 calls)
     phq_init     :    716.25s CPU    614.42s WALL (       6 calls)
 
     phq_init     :    716.25s CPU    614.42s WALL (       6 calls)
     set_drhoc    :    146.05s CPU    146.12s WALL (      18 calls)
     init_vloc    :      2.28s CPU      1.82s WALL (       6 calls)
     init_us_1    :      1.78s CPU      0.92s WALL (       6 calls)
     newd         :      1.70s CPU      1.61s WALL (       6 calls)
     dvanqq       :    336.19s CPU    306.59s WALL (       6 calls)
     drho         :    164.40s CPU     92.56s WALL (       6 calls)
 
     DYNAMICAL MATRIX:
     dynmat0      :    130.24s CPU    129.92s WALL (       6 calls)
     phqscf       :   2955.57s CPU   2267.37s WALL (       6 calls)
     dynmatrix    :      0.01s CPU      7.01s WALL (       6 calls)
 
     phqscf       :   2955.57s CPU   2267.37s WALL (       6 calls)
     solve_linter :   2947.97s CPU   2252.34s WALL (      24 calls)
     drhodv       :      7.57s CPU      6.06s WALL (      24 calls)
 
     dynmat0      :    130.24s CPU    129.92s WALL (       6 calls)
     dynmat_us    :      3.71s CPU      3.68s WALL (       6 calls)
     d2ionq       :      2.23s CPU      2.11s WALL (       6 calls)
     dynmatcc     :    108.70s CPU    107.08s WALL (       6 calls)
 
     dynmat_us    :      3.71s CPU      3.68s WALL (       6 calls)
     addusdynmat  :      0.00s CPU      0.00s WALL (       6 calls)
 
     phqscf       :   2955.57s CPU   2267.37s WALL (       6 calls)
     solve_linter :   2947.97s CPU   2252.34s WALL (      24 calls)
 
     solve_linter :   2947.97s CPU   2252.34s WALL (      24 calls)
     dvqpsi_us    :     11.97s CPU     10.73s WALL (      36 calls)
     ortho        :      5.69s CPU      8.90s WALL (     189 calls)
     cgsolve      :    578.97s CPU    295.24s WALL (     189 calls)
     incdrhoscf   :     39.43s CPU     24.50s WALL (     189 calls)
     addusddens   :    740.91s CPU    402.41s WALL (     157 calls)
     vpsifft      :     23.66s CPU     17.85s WALL (     153 calls)
     dv_of_drho   :    248.57s CPU    266.19s WALL (     189 calls)
     mix_pot      :     21.84s CPU    208.80s WALL (     133 calls)
     ef_shift     :      3.44s CPU      4.11s WALL (      26 calls)
     localdos     :     16.56s CPU      9.00s WALL (       4 calls)
     psymdvscf    :    138.93s CPU    142.83s WALL (     133 calls)
     newdq        :    904.38s CPU    463.62s WALL (     133 calls)
     adddvscf     :      3.22s CPU      3.55s WALL (     189 calls)
     drhodvus     :      9.25s CPU     37.44s WALL (      24 calls)
 
     dvqpsi_us    :     11.97s CPU     10.73s WALL (      36 calls)
     dvqpsi_us_on :      0.75s CPU      1.00s WALL (      36 calls)
 
     cgsolve      :    578.97s CPU    295.24s WALL (     189 calls)
     ch_psi       :    546.48s CPU    278.30s WALL (    2246 calls)
 
     ch_psi       :    546.48s CPU    278.30s WALL (    2246 calls)
     h_psi        :    538.72s CPU    273.58s WALL (    2701 calls)
     last         :     64.26s CPU     32.94s WALL (    2246 calls)
 
     h_psi        :    538.72s CPU    273.58s WALL (    2701 calls)
     add_vuspsi   :     16.79s CPU      8.71s WALL (    2701 calls)
 
     incdrhoscf   :     39.43s CPU     24.50s WALL (     189 calls)
     addusdbec    :      0.79s CPU      1.00s WALL (     225 calls)
 
     drhodvus     :      9.25s CPU     37.44s WALL (      24 calls)
 
      Electron-phonon coupling
     elphel       :      9.82s CPU     10.40s WALL (      24 calls)
     elphsum      :      0.06s CPU      0.57s WALL (       6 calls)
 
      General routines
     calbec       :     32.62s CPU     20.12s WALL (    5589 calls)
     fft          :    187.78s CPU    178.95s WALL (    3869 calls)
     ffts         :      6.24s CPU      6.02s WALL (     661 calls)
     fftw         :    403.17s CPU    214.11s WALL (   24256 calls)
     davcio       :      6.96s CPU    226.66s WALL (    1861 calls)
     write_rec    :      4.62s CPU     61.71s WALL (     157 calls)
 
 
     PHONON       :      1h 3m CPU  49m52.47s WALL

 
   This run was terminated on:  12:15:41  11Mar2021            

=------------------------------------------------------------------------------=
   JOB DONE.
=------------------------------------------------------------------------------=
