
     Program PWSCF v.6.7MaX starts on 10Mar2021 at 20:26: 6 

     This program is part of the open-source Quantum ESPRESSO suite
     for quantum simulation of materials; please cite
         "P. Giannozzi et al., J. Phys.:Condens. Matter 21 395502 (2009);
         "P. Giannozzi et al., J. Phys.:Condens. Matter 29 465901 (2017);
          URL http://www.quantum-espresso.org", 
     in publications or presentations arising from this work. More details at
     http://www.quantum-espresso.org/quote

     Parallel version (MPI & OpenMP), running on      56 processor cores
     Number of MPI processes:                28
     Threads/MPI process:                     2

     MPI processes distributed on     1 nodes
     K-points division:     npool     =      28
     Waiting for input...
     Reading input from standard input

     Current dimensions of program PWSCF are:
     Max number of different atomic species (ntypx) = 10
     Max number of k-points (npk) =  40000
     Max angular momentum in pseudopotentials (lmaxx) =  3
     file C.pbe-n-kjpaw_psl.1.0.0.UPF: wavefunction(s)  2S 2P renormalized

     Subspace diagonalization in iterative solution of the eigenvalue problem:
     a serial algorithm will be used

     Message from routine setup:
     using ibrav=0 with symmetry is DISCOURAGED, use correct ibrav instead
     Message from routine divide_et_impera:
     suboptimal parallelization: some nodes have no k-points
 
     G-vector sticks info
     --------------------
     sticks:   dense  smooth     PW     G-vecs:    dense   smooth      PW
     Sum       56853   22733   6777              1309239   330753   53507
 


     bravais-lattice index     =            0
     lattice parameter (alat)  =      37.7945  a.u.
     unit-cell volume          =    6934.1890 (a.u.)^3
     number of atoms/cell      =            2
     number of atomic types    =            1
     number of electrons       =         8.00
     number of Kohn-Sham states=            4
     kinetic-energy cutoff     =      50.0000  Ry
     charge density cutoff     =     500.0000  Ry
     scf convergence threshold =      1.0E-09
     mixing beta               =       0.7000
     number of iterations used =            8  plain     mixing
     energy convergence thresh.=      1.0E-07
     force convergence thresh. =      1.0E-06
     press convergence thresh. =      1.0E-02
     Exchange-correlation= SLA  PW   PBX  PBC
                           (   1   4   3   4   0   0   0)
     nstep                     =           50


     celldm(1)=  37.794522  celldm(2)=   0.000000  celldm(3)=   0.000000
     celldm(4)=   0.000000  celldm(5)=   0.000000  celldm(6)=   0.000000

     crystal axes: (cart. coord. in units of alat)
               a(1) = (   1.000000   0.000000   0.000000 )  
               a(2) = (   0.000000   1.000000   0.000000 )  
               a(3) = (   0.000000   0.000000   0.128443 )  

     reciprocal axes: (cart. coord. in units 2 pi/alat)
               b(1) = (  1.000000  0.000000  0.000000 )  
               b(2) = (  0.000000  1.000000  0.000000 )  
               b(3) = (  0.000000  0.000000  7.785579 )  


     PseudoPot. # 1 for C  read from file:
     ./pseudopot/C.pbe-n-kjpaw_psl.1.0.0.UPF
     MD5 check sum: 6fec8efd722f5d988670a8dc528584a2
     Pseudo is Projector augmented-wave + core cor, Zval =  4.0
     Generated using "atomic" code by A. Dal Corso  v.5.1.2
     Shape of augmentation charge: PSQ
     Using radial grid of 1073 points,  4 beta functions with: 
                l(1) =   0
                l(2) =   0
                l(3) =   1
                l(4) =   1
     Q(r) pseudized with 0 coefficients 


     atomic species   valence    mass     pseudopotential
        C              4.00    12.01070     C ( 1.00)

      8 Sym. Ops. (no inversion) found


                                    s                        frac. trans.

      isym =  1     identity                                     

 cryst.   s( 1) = (     1          0          0      )
                  (     0          1          0      )
                  (     0          0          1      )

 cart.    s( 1) = (  1.0000000  0.0000000  0.0000000 )
                  (  0.0000000  1.0000000  0.0000000 )
                  (  0.0000000  0.0000000  1.0000000 )


      isym =  2     180 deg rotation - cart. axis [0,0,1]        

 cryst.   s( 2) = (    -1          0          0      )
                  (     0         -1          0      )
                  (     0          0          1      )

 cart.    s( 2) = ( -1.0000000  0.0000000  0.0000000 )
                  (  0.0000000 -1.0000000  0.0000000 )
                  (  0.0000000  0.0000000  1.0000000 )


      isym =  3      90 deg rotation - cart. axis [0,0,-1]       

 cryst.   s( 3) = (     0         -1          0      )
                  (     1          0          0      )
                  (     0          0          1      )

 cart.    s( 3) = (  0.0000000  1.0000000  0.0000000 )
                  ( -1.0000000  0.0000000  0.0000000 )
                  (  0.0000000  0.0000000  1.0000000 )


      isym =  4      90 deg rotation - cart. axis [0,0,1]        

 cryst.   s( 4) = (     0          1          0      )
                  (    -1          0          0      )
                  (     0          0          1      )

 cart.    s( 4) = (  0.0000000 -1.0000000  0.0000000 )
                  (  1.0000000  0.0000000  0.0000000 )
                  (  0.0000000  0.0000000  1.0000000 )


      isym =  5     inv. 180 deg rotation - cart. axis [0,1,0]   

 cryst.   s( 5) = (     1          0          0      )
                  (     0         -1          0      )
                  (     0          0          1      )

 cart.    s( 5) = (  1.0000000  0.0000000  0.0000000 )
                  (  0.0000000 -1.0000000  0.0000000 )
                  (  0.0000000  0.0000000  1.0000000 )


      isym =  6     inv. 180 deg rotation - cart. axis [1,0,0]   

 cryst.   s( 6) = (    -1          0          0      )
                  (     0          1          0      )
                  (     0          0          1      )

 cart.    s( 6) = ( -1.0000000  0.0000000  0.0000000 )
                  (  0.0000000  1.0000000  0.0000000 )
                  (  0.0000000  0.0000000  1.0000000 )


      isym =  7     inv. 180 deg rotation - cart. axis [1,1,0]   

 cryst.   s( 7) = (     0         -1          0      )
                  (    -1          0          0      )
                  (     0          0          1      )

 cart.    s( 7) = (  0.0000000 -1.0000000  0.0000000 )
                  ( -1.0000000  0.0000000  0.0000000 )
                  (  0.0000000  0.0000000  1.0000000 )


      isym =  8     inv. 180 deg rotation - cart. axis [1,-1,0]  

 cryst.   s( 8) = (     0          1          0      )
                  (     1          0          0      )
                  (     0          0          1      )

 cart.    s( 8) = (  0.0000000  1.0000000  0.0000000 )
                  (  1.0000000  0.0000000  0.0000000 )
                  (  0.0000000  0.0000000  1.0000000 )


   Cartesian axes

     site n.     atom                  positions (alat units)
         1           C   tau(   1) = (   0.5000000   0.5000000   0.0000000  )
         2           C   tau(   2) = (   0.5000000   0.5000000   0.0625596  )

   Crystallographic axes

     site n.     atom                  positions (cryst. coord.)
         1           C   tau(   1) = (  0.5000000  0.5000000  0.0000000  )
         2           C   tau(   2) = (  0.5000000  0.5000000  0.4870627  )

     number of k points=     9
                       cart. coord. in units 2pi/alat
        k(    1) = (   0.0000000   0.0000000   0.0000000), wk =   0.1250000
        k(    2) = (   0.0000000   0.0000000   0.4865987), wk =   0.2500000
        k(    3) = (   0.0000000   0.0000000   0.9731974), wk =   0.2500000
        k(    4) = (   0.0000000   0.0000000   1.4597960), wk =   0.2500000
        k(    5) = (   0.0000000   0.0000000   1.9463947), wk =   0.2500000
        k(    6) = (   0.0000000   0.0000000   2.4329934), wk =   0.2500000
        k(    7) = (   0.0000000   0.0000000   2.9195921), wk =   0.2500000
        k(    8) = (   0.0000000   0.0000000   3.4061908), wk =   0.2500000
        k(    9) = (   0.0000000   0.0000000  -3.8927895), wk =   0.1250000

                       cryst. coord.
        k(    1) = (   0.0000000   0.0000000   0.0000000), wk =   0.1250000
        k(    2) = (   0.0000000   0.0000000   0.0625000), wk =   0.2500000
        k(    3) = (   0.0000000   0.0000000   0.1250000), wk =   0.2500000
        k(    4) = (   0.0000000   0.0000000   0.1875000), wk =   0.2500000
        k(    5) = (   0.0000000   0.0000000   0.2500000), wk =   0.2500000
        k(    6) = (   0.0000000   0.0000000   0.3125000), wk =   0.2500000
        k(    7) = (   0.0000000   0.0000000   0.3750000), wk =   0.2500000
        k(    8) = (   0.0000000   0.0000000   0.4375000), wk =   0.2500000
        k(    9) = (   0.0000000   0.0000000  -0.5000000), wk =   0.1250000

     Dense  grid:  1309239 G-vectors     FFT dimensions: ( 270, 270,  36)

     Smooth grid:   330753 G-vectors     FFT dimensions: ( 180, 180,  24)

     Dynamical RAM for                 wfc:       2.53 MB

     Dynamical RAM for     wfc (w. buffer):       2.53 MB

     Dynamical RAM for           str. fact:      19.98 MB

     Dynamical RAM for           local pot:       0.00 MB

     Dynamical RAM for          nlocal pot:      10.11 MB

     Dynamical RAM for                qrad:       1.03 MB

     Dynamical RAM for          rho,v,vnew:     120.00 MB

     Dynamical RAM for               rhoin:      40.00 MB

     Dynamical RAM for            rho*nmix:     319.64 MB

     Dynamical RAM for           G-vectors:      77.44 MB

     Dynamical RAM for          h,s,v(r/c):       0.00 MB

     Dynamical RAM for          <psi|beta>:       0.00 MB

     Dynamical RAM for                 psi:       5.05 MB

     Dynamical RAM for                hpsi:       5.05 MB

     Dynamical RAM for                spsi:       5.05 MB

     Dynamical RAM for      wfcinit/wfcrot:      10.11 MB

     Dynamical RAM for           addusdens:      51.37 MB

     Dynamical RAM for          addusforce:      43.52 MB

     Dynamical RAM for         addusstress:      45.31 MB

     Estimated static dynamical RAM per process >     730.78 MB

     Estimated max dynamical RAM per process >     782.15 MB

     Estimated total dynamical RAM >      21.39 GB

     Initial potential from superposition of free atoms

     starting charge    7.99992, renormalised to    8.00000

     negative rho (up, down):  3.997E-04 0.000E+00
     Starting wfcs are    8 randomized atomic wfcs
     Checking if some PAW data can be deallocated... 

     total cpu time spent up to now is       27.7 secs

     Self-consistent Calculation

     iteration #  1     ecut=    50.00 Ry     beta= 0.70
     Davidson diagonalization with overlap
     ethr =  1.00E-02,  avg # of iterations =  2.0

     negative rho (up, down):  4.930E-04 0.000E+00

     total cpu time spent up to now is       30.9 secs

     total energy              =     -36.69866692 Ry
     estimated scf accuracy    <       0.25039653 Ry

     iteration #  2     ecut=    50.00 Ry     beta= 0.70
     Davidson diagonalization with overlap
     ethr =  3.13E-03,  avg # of iterations =  2.0

     negative rho (up, down):  5.244E-04 0.000E+00

     total cpu time spent up to now is       33.9 secs

     total energy              =     -36.74203436 Ry
     estimated scf accuracy    <       0.00462604 Ry

     iteration #  3     ecut=    50.00 Ry     beta= 0.70
     Davidson diagonalization with overlap
     ethr =  5.78E-05,  avg # of iterations =  1.9

     negative rho (up, down):  5.425E-04 0.000E+00

     total cpu time spent up to now is       36.7 secs

     total energy              =     -36.74250910 Ry
     estimated scf accuracy    <       0.00020549 Ry

     iteration #  4     ecut=    50.00 Ry     beta= 0.70
     Davidson diagonalization with overlap
     ethr =  2.57E-06,  avg # of iterations =  2.7

     negative rho (up, down):  5.457E-04 0.000E+00

     total cpu time spent up to now is       39.6 secs

     total energy              =     -36.74262867 Ry
     estimated scf accuracy    <       0.00001486 Ry

     iteration #  5     ecut=    50.00 Ry     beta= 0.70
     Davidson diagonalization with overlap
     ethr =  1.86E-07,  avg # of iterations =  2.4

     negative rho (up, down):  5.453E-04 0.000E+00

     total cpu time spent up to now is       42.5 secs

     total energy              =     -36.74263365 Ry
     estimated scf accuracy    <       0.00000338 Ry

     iteration #  6     ecut=    50.00 Ry     beta= 0.70
     Davidson diagonalization with overlap
     ethr =  4.22E-08,  avg # of iterations =  2.0

     negative rho (up, down):  5.460E-04 0.000E+00

     total cpu time spent up to now is       45.4 secs

     total energy              =     -36.74263441 Ry
     estimated scf accuracy    <       0.00000041 Ry

     iteration #  7     ecut=    50.00 Ry     beta= 0.70
     Davidson diagonalization with overlap
     ethr =  5.14E-09,  avg # of iterations =  2.8

     negative rho (up, down):  5.460E-04 0.000E+00

     total cpu time spent up to now is       48.4 secs

     total energy              =     -36.74263451 Ry
     estimated scf accuracy    <       0.00000002 Ry

     iteration #  8     ecut=    50.00 Ry     beta= 0.70
     Davidson diagonalization with overlap
     ethr =  2.65E-10,  avg # of iterations =  3.8

     negative rho (up, down):  5.460E-04 0.000E+00

     total cpu time spent up to now is       51.4 secs

     total energy              =     -36.74263452 Ry
     estimated scf accuracy    <          4.2E-09 Ry

     iteration #  9     ecut=    50.00 Ry     beta= 0.70
     Davidson diagonalization with overlap
     ethr =  5.27E-11,  avg # of iterations =  2.3

     negative rho (up, down):  5.460E-04 0.000E+00

     total cpu time spent up to now is       54.0 secs

     End of self-consistent calculation

          k = 0.0000 0.0000 0.0000 ( 41595 PWs)   bands (ev):

   -21.2472 -14.0429 -10.3069 -10.3069

     occupation numbers 
     1.0000   1.0000   1.0000   1.0000

          k = 0.0000 0.0000 0.4866 ( 41535 PWs)   bands (ev):

   -21.1969 -14.1489 -10.2229 -10.2229

     occupation numbers 
     1.0000   1.0000   1.0000   1.0000

          k = 0.0000 0.0000 0.9732 ( 41491 PWs)   bands (ev):

   -21.0466 -14.4539  -9.9712  -9.9712

     occupation numbers 
     1.0000   1.0000   1.0000   1.0000

          k = 0.0000 0.0000 1.4598 ( 41563 PWs)   bands (ev):

   -20.7986 -14.9237  -9.5525  -9.5525

     occupation numbers 
     1.0000   1.0000   1.0000   1.0000

          k = 0.0000 0.0000 1.9464 ( 41427 PWs)   bands (ev):

   -20.4567 -15.5139  -8.9680  -8.9680

     occupation numbers 
     1.0000   1.0000   1.0000   1.0000

          k = 0.0000 0.0000 2.4330 ( 41379 PWs)   bands (ev):

   -20.0268 -16.1796  -8.2201  -8.2201

     occupation numbers 
     1.0000   1.0000   1.0000   1.0000

          k = 0.0000 0.0000 2.9196 ( 41295 PWs)   bands (ev):

   -19.5171 -16.8804  -7.3129  -7.3129

     occupation numbers 
     1.0000   1.0000   1.0000   1.0000

          k = 0.0000 0.0000 3.4062 ( 41119 PWs)   bands (ev):

   -18.9415 -17.5796  -6.2582  -6.2582

     occupation numbers 
     1.0000   1.0000   1.0000   1.0000

          k = 0.0000 0.0000-3.8928 ( 41114 PWs)   bands (ev):

   -18.4330 -18.1308  -5.2969  -5.2969

     occupation numbers 
     1.0000   1.0000   1.0000   1.0000

     highest occupied level (ev):    -5.2969

!    total energy              =     -36.74263452 Ry

     total all-electron energy =      -152.270830 Ry
     estimated scf accuracy    <          2.0E-10 Ry

     The total energy is the sum of the following terms:
     one-electron contribution =    -101.80197883 Ry
     hartree contribution      =      51.69099883 Ry
     xc contribution           =      -9.08718078 Ry
     ewald contribution        =      34.79639450 Ry
     one-center paw contrib.   =     -12.34086824 Ry
      -> PAW hartree energy AE =       9.67211881 Ry
      -> PAW hartree energy PS =      -9.66313692 Ry
      -> PAW xc energy AE      =     -10.72414172 Ry
      -> PAW xc energy PS      =       4.54472601 Ry
      -> total E_H with PAW    =      51.69998072 Ry
      -> total E_XC with PAW   =     -15.26659648 Ry

     convergence has been achieved in   9 iterations

     negative rho (up, down):  5.460E-04 0.000E+00

     Forces acting on atoms (cartesian axes, Ry/au):

     atom    1 type  1   force =     0.00000000    0.00000000    0.00013096
     atom    2 type  1   force =     0.00000000    0.00000000   -0.00013096
     The non-local contrib.  to forces
     atom    1 type  1   force =     0.00000000    0.00000000   -0.13223048
     atom    2 type  1   force =     0.00000000    0.00000000    0.13223277
     The ionic contribution  to forces
     atom    1 type  1   force =    -0.00000000   -0.00000000   -0.59204708
     atom    2 type  1   force =     0.00000000    0.00000000    0.59204708
     The local contribution  to forces
     atom    1 type  1   force =     0.00000000    0.00000000    0.71865544
     atom    2 type  1   force =     0.00000000    0.00000000   -0.71866001
     The core correction contribution to forces
     atom    1 type  1   force =     0.00000000    0.00000000    0.00579221
     atom    2 type  1   force =    -0.00000000   -0.00000000   -0.00574966
     The Hubbard contrib.    to forces
     atom    1 type  1   force =     0.00000000    0.00000000    0.00000000
     atom    2 type  1   force =     0.00000000    0.00000000    0.00000000
     The SCF correction term to forces
     atom    1 type  1   force =     0.00000000   -0.00000000   -0.00001895
     atom    2 type  1   force =     0.00000000   -0.00000000    0.00001906

     Total force =     0.000185     Total SCF correction =     0.000027
     SCF correction compared to forces is large: reduce conv_thr to get better values


     Computing stress (Cartesian axis) and pressure


     negative rho (up, down):  5.460E-04 0.000E+00
          total   stress  (Ry/bohr**3)                   (kbar)     P=       -0.01
  -0.00000012   0.00000000   0.00000000           -0.02        0.00        0.00
   0.00000000  -0.00000012   0.00000000            0.00       -0.02        0.00
   0.00000000   0.00000000  -0.00000001            0.00        0.00       -0.00

     kinetic stress (kbar)    226.59      0.00      0.00
                                0.00    226.59      0.00
                                0.00      0.00    155.84

     local   stress (kbar)     57.95     -0.00     -0.00
                               -0.00     57.95     -0.00
                               -0.00     -0.00  -2557.82

     nonloc. stress (kbar)     46.35      0.00      0.00
                                0.00     46.35      0.00
                                0.00      0.00     58.03

     hartree stress (kbar)      0.30      0.00     -0.00
                                0.00      0.30     -0.00
                               -0.00     -0.00   1095.99

     exc-cor stress (kbar)     -4.21     -0.00     -0.00
                               -0.00     -4.21      0.00
                               -0.00      0.00     -1.04

     corecor stress (kbar)    -47.32      0.00     -0.00
                                0.00    -47.32     -0.00
                               -0.00     -0.00    -48.56

     ewald   stress (kbar)   -279.69      0.00     -0.00
                                0.00   -279.69     -0.00
                               -0.00     -0.00   1297.56

     hubbard stress (kbar)      0.00      0.00      0.00
                                0.00      0.00      0.00
                                0.00      0.00      0.00

     DFT-D   stress (kbar)      0.00      0.00      0.00
                                0.00      0.00      0.00
                                0.00      0.00      0.00

     XDM     stress (kbar)      0.00      0.00      0.00
                                0.00      0.00      0.00
                                0.00      0.00      0.00

     dft-nl  stress (kbar)      0.00      0.00      0.00
                                0.00      0.00      0.00
                                0.00      0.00      0.00

     TS-vdW  stress (kbar)      0.00      0.00      0.00
                                0.00      0.00      0.00
                                0.00      0.00      0.00



     BFGS Geometry Optimization
     Energy error            =      0.0E+00
     Gradient error          =      1.3E-04
     Cell gradient error     =      8.6E-09


     number of scf cycles    =   1
     number of bfgs steps    =   0

     enthalpy new            =     -36.7426345204 Ry

     new trust radius        =       0.0001309556 bohr
     new conv_thr            =       0.0000000010 Ry

     new unit-cell volume =   6934.18753 a.u.^3 (  1027.54058 Ang^3 )
     density =      0.03882 g/cm^3

CELL_PARAMETERS (angstrom)
  20.000000000   0.000000000   0.000000000
   0.000000000  20.000000000   0.000000000
   0.000000000   0.000000000   2.568851447

ATOMIC_POSITIONS (angstrom)
C            10.0000000000       10.0000000000        0.0000692987
C            10.0000000000       10.0000000000        1.2511224321



     Writing output data file ./outdir/carbyne.save/
     NEW-OLD atomic charge density approx. for the potential

     negative rho (up, down):  5.460E-04 0.000E+00
     extrapolated charge    8.00000, renormalised to    8.00000

     total cpu time spent up to now is      129.6 secs

     Self-consistent Calculation

     iteration #  1     ecut=    50.00 Ry     beta= 0.70
     Davidson diagonalization with overlap
     ethr =  1.00E-06,  avg # of iterations =  2.0

     Threshold (ethr) on eigenvalues was too large:
     Diagonalizing with lowered threshold

     Davidson diagonalization with overlap
     ethr =  2.20E-10,  avg # of iterations =  3.8

     negative rho (up, down):  5.461E-04 0.000E+00

     total cpu time spent up to now is      133.3 secs

     total energy              =     -36.74263448 Ry
     estimated scf accuracy    <       0.00000006 Ry

     iteration #  2     ecut=    50.00 Ry     beta= 0.70
     Davidson diagonalization with overlap
     ethr =  7.94E-10,  avg # of iterations =  2.0

     negative rho (up, down):  5.461E-04 0.000E+00

     total cpu time spent up to now is      135.7 secs

     End of self-consistent calculation

          k = 0.0000 0.0000 0.0000 ( 41595 PWs)   bands (ev):

   -21.2469 -14.0426 -10.3067 -10.3067

     occupation numbers 
     1.0000   1.0000   1.0000   1.0000

          k = 0.0000 0.0000 0.4866 ( 41535 PWs)   bands (ev):

   -21.1966 -14.1486 -10.2227 -10.2227

     occupation numbers 
     1.0000   1.0000   1.0000   1.0000

          k = 0.0000 0.0000 0.9732 ( 41491 PWs)   bands (ev):

   -21.0463 -14.4535  -9.9710  -9.9710

     occupation numbers 
     1.0000   1.0000   1.0000   1.0000

          k = 0.0000 0.0000 1.4598 ( 41563 PWs)   bands (ev):

   -20.7983 -14.9233  -9.5523  -9.5523

     occupation numbers 
     1.0000   1.0000   1.0000   1.0000

          k = 0.0000 0.0000 1.9464 ( 41427 PWs)   bands (ev):

   -20.4565 -15.5135  -8.9679  -8.9679

     occupation numbers 
     1.0000   1.0000   1.0000   1.0000

          k = 0.0000 0.0000 2.4330 ( 41379 PWs)   bands (ev):

   -20.0266 -16.1792  -8.2200  -8.2200

     occupation numbers 
     1.0000   1.0000   1.0000   1.0000

          k = 0.0000 0.0000 2.9196 ( 41295 PWs)   bands (ev):

   -19.5169 -16.8800  -7.3128  -7.3128

     occupation numbers 
     1.0000   1.0000   1.0000   1.0000

          k = 0.0000 0.0000 3.4062 ( 41119 PWs)   bands (ev):

   -18.9414 -17.5790  -6.2582  -6.2582

     occupation numbers 
     1.0000   1.0000   1.0000   1.0000

          k = 0.0000 0.0000-3.8928 ( 41114 PWs)   bands (ev):

   -18.4336 -18.1295  -5.2980  -5.2980

     occupation numbers 
     1.0000   1.0000   1.0000   1.0000

     highest occupied level (ev):    -5.2980

!    total energy              =     -36.74263450 Ry

     total all-electron energy =      -152.270830 Ry
     estimated scf accuracy    <          2.1E-10 Ry

     The total energy is the sum of the following terms:
     one-electron contribution =    -101.80227467 Ry
     hartree contribution      =      51.69116830 Ry
     xc contribution           =      -9.08721967 Ry
     ewald contribution        =      34.79656305 Ry
     one-center paw contrib.   =     -12.34087151 Ry
      -> PAW hartree energy AE =       9.67244106 Ry
      -> PAW hartree energy PS =      -9.66345893 Ry
      -> PAW xc energy AE      =     -10.72421989 Ry
      -> PAW xc energy PS      =       4.54480233 Ry
      -> total E_H with PAW    =      51.70015043 Ry
      -> total E_XC with PAW   =     -15.26663722 Ry

     convergence has been achieved in   2 iterations

     negative rho (up, down):  5.461E-04 0.000E+00

     Forces acting on atoms (cartesian axes, Ry/au):

     atom    1 type  1   force =     0.00000000    0.00000000   -0.00024631
     atom    2 type  1   force =     0.00000000    0.00000000    0.00024631
     The non-local contrib.  to forces
     atom    1 type  1   force =     0.00000000    0.00000000   -0.13284977
     atom    2 type  1   force =     0.00000000    0.00000000    0.13285475
     The ionic contribution  to forces
     atom    1 type  1   force =     0.00000000    0.00000000   -0.59452274
     atom    2 type  1   force =    -0.00000000   -0.00000000    0.59452274
     The local contribution  to forces
     atom    1 type  1   force =     0.00000000    0.00000000    0.72131968
     atom    2 type  1   force =     0.00000000    0.00000000   -0.72132634
     The core correction contribution to forces
     atom    1 type  1   force =     0.00000000    0.00000000    0.00581505
     atom    2 type  1   force =    -0.00000000   -0.00000000   -0.00577319
     The Hubbard contrib.    to forces
     atom    1 type  1   force =     0.00000000    0.00000000    0.00000000
     atom    2 type  1   force =     0.00000000    0.00000000    0.00000000
     The SCF correction term to forces
     atom    1 type  1   force =     0.00000000    0.00000000    0.00001140
     atom    2 type  1   force =     0.00000000    0.00000000   -0.00001172

     Total force =     0.000348     Total SCF correction =     0.000016


     Computing stress (Cartesian axis) and pressure


     negative rho (up, down):  5.461E-04 0.000E+00
          total   stress  (Ry/bohr**3)                   (kbar)     P=       -0.01
  -0.00000012   0.00000000   0.00000000           -0.02        0.00        0.00
   0.00000000  -0.00000012   0.00000000            0.00       -0.02        0.00
   0.00000000   0.00000000   0.00000003            0.00        0.00        0.00

     kinetic stress (kbar)    226.59      0.00      0.00
                                0.00    226.59      0.00
                                0.00      0.00    155.84

     local   stress (kbar)     57.95      0.00     -0.00
                                0.00     57.95      0.00
                               -0.00      0.00  -2557.82

     nonloc. stress (kbar)     46.35      0.00      0.00
                                0.00     46.35      0.00
                                0.00      0.00     58.03

     hartree stress (kbar)      0.30     -0.00     -0.00
                               -0.00      0.30     -0.00
                               -0.00     -0.00   1095.99

     exc-cor stress (kbar)     -4.21      0.00      0.00
                                0.00     -4.21      0.00
                                0.00      0.00     -1.04

     corecor stress (kbar)    -47.32     -0.00     -0.00
                               -0.00    -47.32     -0.00
                               -0.00     -0.00    -48.56

     ewald   stress (kbar)   -279.69      0.00     -0.00
                                0.00   -279.69     -0.00
                               -0.00     -0.00   1297.57

     hubbard stress (kbar)      0.00      0.00      0.00
                                0.00      0.00      0.00
                                0.00      0.00      0.00

     DFT-D   stress (kbar)      0.00      0.00      0.00
                                0.00      0.00      0.00
                                0.00      0.00      0.00

     XDM     stress (kbar)      0.00      0.00      0.00
                                0.00      0.00      0.00
                                0.00      0.00      0.00

     dft-nl  stress (kbar)      0.00      0.00      0.00
                                0.00      0.00      0.00
                                0.00      0.00      0.00

     TS-vdW  stress (kbar)      0.00      0.00      0.00
                                0.00      0.00      0.00
                                0.00      0.00      0.00


     Energy error            =      2.5E-08
     Gradient error          =      2.5E-04
     Cell gradient error     =      2.8E-08


     number of scf cycles    =   2
     number of bfgs steps    =   1

     enthalpy old            =     -36.7426345204 Ry
     enthalpy new            =     -36.7426344954 Ry

     CASE: enthalpy_new > enthalpy_old

     new trust radius        =       0.0000378634 bohr

     trust_radius < trust_radius_min

     resetting bfgs history

     new conv_thr            =       0.0000000010 Ry

     new unit-cell volume =   6934.18753 a.u.^3 (  1027.54058 Ang^3 )
     density =      0.03882 g/cm^3

CELL_PARAMETERS (angstrom)
  20.000000000   0.000000000   0.000000000
   0.000000000  20.000000000   0.000000000
   0.000000000   0.000000000   2.568851447

ATOMIC_POSITIONS (angstrom)
C            10.0000000000       10.0000000000        0.0000692987
C            10.0000000000       10.0000000000        1.2511224320



     Writing output data file ./outdir/carbyne.save/
     NEW-OLD atomic charge density approx. for the potential

     negative rho (up, down):  5.461E-04 0.000E+00

     total cpu time spent up to now is      212.2 secs

     Self-consistent Calculation

     iteration #  1     ecut=    50.00 Ry     beta= 0.70
     Davidson diagonalization with overlap
     ethr =  1.00E-06,  avg # of iterations =  1.0

     Threshold (ethr) on eigenvalues was too large:
     Diagonalizing with lowered threshold

     Davidson diagonalization with overlap
     ethr =  4.01E-13,  avg # of iterations =  4.7

     negative rho (up, down):  5.461E-04 0.000E+00

     total cpu time spent up to now is      216.2 secs

     End of self-consistent calculation

          k = 0.0000 0.0000 0.0000 ( 41595 PWs)   bands (ev):

   -21.2471 -14.0428 -10.3068 -10.3068

     occupation numbers 
     1.0000   1.0000   1.0000   1.0000

          k = 0.0000 0.0000 0.4866 ( 41535 PWs)   bands (ev):

   -21.1967 -14.1487 -10.2228 -10.2228

     occupation numbers 
     1.0000   1.0000   1.0000   1.0000

          k = 0.0000 0.0000 0.9732 ( 41491 PWs)   bands (ev):

   -21.0465 -14.4537  -9.9711  -9.9711

     occupation numbers 
     1.0000   1.0000   1.0000   1.0000

          k = 0.0000 0.0000 1.4598 ( 41563 PWs)   bands (ev):

   -20.7985 -14.9235  -9.5524  -9.5524

     occupation numbers 
     1.0000   1.0000   1.0000   1.0000

          k = 0.0000 0.0000 1.9464 ( 41427 PWs)   bands (ev):

   -20.4566 -15.5137  -8.9680  -8.9680

     occupation numbers 
     1.0000   1.0000   1.0000   1.0000

          k = 0.0000 0.0000 2.4330 ( 41379 PWs)   bands (ev):

   -20.0267 -16.1794  -8.2201  -8.2201

     occupation numbers 
     1.0000   1.0000   1.0000   1.0000

          k = 0.0000 0.0000 2.9196 ( 41295 PWs)   bands (ev):

   -19.5171 -16.8801  -7.3129  -7.3129

     occupation numbers 
     1.0000   1.0000   1.0000   1.0000

          k = 0.0000 0.0000 3.4062 ( 41119 PWs)   bands (ev):

   -18.9416 -17.5792  -6.2583  -6.2583

     occupation numbers 
     1.0000   1.0000   1.0000   1.0000

          k = 0.0000 0.0000-3.8928 ( 41114 PWs)   bands (ev):

   -18.4338 -18.1296  -5.2981  -5.2981

     occupation numbers 
     1.0000   1.0000   1.0000   1.0000

     highest occupied level (ev):    -5.2981

!    total energy              =     -36.74263450 Ry

     total all-electron energy =      -152.270830 Ry
     estimated scf accuracy    <          2.2E-10 Ry

     The total energy is the sum of the following terms:
     one-electron contribution =    -101.80231587 Ry
     hartree contribution      =      51.69121826 Ry
     xc contribution           =      -9.08722786 Ry
     ewald contribution        =      34.79656305 Ry
     one-center paw contrib.   =     -12.34087207 Ry
      -> PAW hartree energy AE =       9.67250941 Ry
      -> PAW hartree energy PS =      -9.66352722 Ry
      -> PAW xc energy AE      =     -10.72423638 Ry
      -> PAW xc energy PS      =       4.54481832 Ry
      -> total E_H with PAW    =      51.70020045 Ry
      -> total E_XC with PAW   =     -15.26664592 Ry

     convergence has been achieved in   1 iterations

     negative rho (up, down):  5.461E-04 0.000E+00

     Forces acting on atoms (cartesian axes, Ry/au):

     atom    1 type  1   force =     0.00000000    0.00000000   -0.00030702
     atom    2 type  1   force =     0.00000000    0.00000000    0.00030702
     The non-local contrib.  to forces
     atom    1 type  1   force =     0.00000000    0.00000000   -0.13285683
     atom    2 type  1   force =     0.00000000    0.00000000    0.13286175
     The ionic contribution  to forces
     atom    1 type  1   force =     0.00000000    0.00000000   -0.59452274
     atom    2 type  1   force =    -0.00000000   -0.00000000    0.59452274
     The local contribution  to forces
     atom    1 type  1   force =     0.00000000    0.00000000    0.72126045
     atom    2 type  1   force =     0.00000000    0.00000000   -0.72126861
     The core correction contribution to forces
     atom    1 type  1   force =     0.00000000    0.00000000    0.00581509
     atom    2 type  1   force =    -0.00000000   -0.00000000   -0.00577322
     The Hubbard contrib.    to forces
     atom    1 type  1   force =     0.00000000    0.00000000    0.00000000
     atom    2 type  1   force =     0.00000000    0.00000000    0.00000000
     The SCF correction term to forces
     atom    1 type  1   force =     0.00000000    0.00000000    0.00001658
     atom    2 type  1   force =     0.00000000    0.00000000   -0.00001608

     Total force =     0.000434     Total SCF correction =     0.000023


     Computing stress (Cartesian axis) and pressure


     negative rho (up, down):  5.461E-04 0.000E+00
          total   stress  (Ry/bohr**3)                   (kbar)     P=       -0.01
  -0.00000012   0.00000000   0.00000000           -0.02        0.00        0.00
   0.00000000  -0.00000012   0.00000000            0.00       -0.02        0.00
   0.00000000   0.00000000   0.00000002            0.00        0.00        0.00

     kinetic stress (kbar)    226.59      0.00      0.00
                                0.00    226.59      0.00
                                0.00      0.00    155.84

     local   stress (kbar)     57.95     -0.00      0.00
                               -0.00     57.95     -0.00
                                0.00     -0.00  -2557.82

     nonloc. stress (kbar)     46.35      0.00      0.00
                                0.00     46.35      0.00
                                0.00      0.00     58.03

     hartree stress (kbar)      0.30      0.00      0.00
                                0.00      0.30     -0.00
                                0.00     -0.00   1095.99

     exc-cor stress (kbar)     -4.21     -0.00      0.00
                               -0.00     -4.21      0.00
                                0.00      0.00     -1.04

     corecor stress (kbar)    -47.32     -0.00     -0.00
                               -0.00    -47.32     -0.00
                               -0.00     -0.00    -48.56

     ewald   stress (kbar)   -279.69     -0.00      0.00
                               -0.00   -279.69      0.00
                                0.00      0.00   1297.57

     hubbard stress (kbar)      0.00      0.00      0.00
                                0.00      0.00      0.00
                                0.00      0.00      0.00

     DFT-D   stress (kbar)      0.00      0.00      0.00
                                0.00      0.00      0.00
                                0.00      0.00      0.00

     XDM     stress (kbar)      0.00      0.00      0.00
                                0.00      0.00      0.00
                                0.00      0.00      0.00

     dft-nl  stress (kbar)      0.00      0.00      0.00
                                0.00      0.00      0.00
                                0.00      0.00      0.00

     TS-vdW  stress (kbar)      0.00      0.00      0.00
                                0.00      0.00      0.00
                                0.00      0.00      0.00


     Energy error            =      2.4E-08
     Gradient error          =      3.1E-04
     Cell gradient error     =      2.4E-08


     number of scf cycles    =   3
     number of bfgs steps    =   1

     enthalpy old            =     -36.7426345204 Ry
     enthalpy new            =     -36.7426344962 Ry

     CASE: enthalpy_new > enthalpy_old

     new trust radius        =       0.0000384103 bohr

     trust_radius < trust_radius_min

     resetting bfgs history

     Message from routine bfgs:
     history already reset at previous step: stopping
     new conv_thr            =       0.0000000010 Ry

     new unit-cell volume =   6934.18753 a.u.^3 (  1027.54058 Ang^3 )
     density =      0.03882 g/cm^3

CELL_PARAMETERS (angstrom)
  20.000000000   0.000000000   0.000000000
   0.000000000  20.000000000   0.000000000
   0.000000000   0.000000000   2.568851447

ATOMIC_POSITIONS (angstrom)
C            10.0000000000       10.0000000000        0.0000692987
C            10.0000000000       10.0000000000        1.2511224320



     Writing output data file ./outdir/carbyne.save/
     NEW-OLD atomic charge density approx. for the potential

     negative rho (up, down):  5.461E-04 0.000E+00

     total cpu time spent up to now is      292.1 secs

     Self-consistent Calculation

     iteration #  1     ecut=    50.00 Ry     beta= 0.70
     Davidson diagonalization with overlap
     ethr =  1.00E-06,  avg # of iterations =  1.0

     Threshold (ethr) on eigenvalues was too large:
     Diagonalizing with lowered threshold

     Davidson diagonalization with overlap
     ethr =  8.23E-13,  avg # of iterations =  3.1

     negative rho (up, down):  5.461E-04 0.000E+00

     total cpu time spent up to now is      295.7 secs

     End of self-consistent calculation

          k = 0.0000 0.0000 0.0000 ( 41595 PWs)   bands (ev):

   -21.2470 -14.0426 -10.3067 -10.3067

     occupation numbers 
     1.0000   1.0000   1.0000   1.0000

          k = 0.0000 0.0000 0.4866 ( 41535 PWs)   bands (ev):

   -21.1967 -14.1486 -10.2228 -10.2228

     occupation numbers 
     1.0000   1.0000   1.0000   1.0000

          k = 0.0000 0.0000 0.9732 ( 41491 PWs)   bands (ev):

   -21.0464 -14.4536  -9.9711  -9.9711

     occupation numbers 
     1.0000   1.0000   1.0000   1.0000

          k = 0.0000 0.0000 1.4598 ( 41563 PWs)   bands (ev):

   -20.7984 -14.9234  -9.5524  -9.5524

     occupation numbers 
     1.0000   1.0000   1.0000   1.0000

          k = 0.0000 0.0000 1.9464 ( 41427 PWs)   bands (ev):

   -20.4566 -15.5136  -8.9679  -8.9679

     occupation numbers 
     1.0000   1.0000   1.0000   1.0000

          k = 0.0000 0.0000 2.4330 ( 41379 PWs)   bands (ev):

   -20.0267 -16.1793  -8.2201  -8.2201

     occupation numbers 
     1.0000   1.0000   1.0000   1.0000

          k = 0.0000 0.0000 2.9196 ( 41295 PWs)   bands (ev):

   -19.5170 -16.8800  -7.3129  -7.3129

     occupation numbers 
     1.0000   1.0000   1.0000   1.0000

          k = 0.0000 0.0000 3.4062 ( 41119 PWs)   bands (ev):

   -18.9415 -17.5791  -6.2583  -6.2583

     occupation numbers 
     1.0000   1.0000   1.0000   1.0000

          k = 0.0000 0.0000-3.8928 ( 41114 PWs)   bands (ev):

   -18.4338 -18.1295  -5.2981  -5.2981

     occupation numbers 
     1.0000   1.0000   1.0000   1.0000

     highest occupied level (ev):    -5.2981

!    total energy              =     -36.74263450 Ry

     total all-electron energy =      -152.270830 Ry
     estimated scf accuracy    <          2.0E-10 Ry

     The total energy is the sum of the following terms:
     one-electron contribution =    -101.80228850 Ry
     hartree contribution      =      51.69118472 Ry
     xc contribution           =      -9.08722205 Ry
     ewald contribution        =      34.79656305 Ry
     one-center paw contrib.   =     -12.34087171 Ry
      -> PAW hartree energy AE =       9.67241149 Ry
      -> PAW hartree energy PS =      -9.66342940 Ry
      -> PAW xc energy AE      =     -10.72421260 Ry
      -> PAW xc energy PS      =       4.54479528 Ry
      -> total E_H with PAW    =      51.70016682 Ry
      -> total E_XC with PAW   =     -15.26663937 Ry

     convergence has been achieved in   1 iterations

     negative rho (up, down):  5.461E-04 0.000E+00

     Forces acting on atoms (cartesian axes, Ry/au):

     atom    1 type  1   force =     0.00000000    0.00000000   -0.00029171
     atom    2 type  1   force =     0.00000000    0.00000000    0.00029171
     The non-local contrib.  to forces
     atom    1 type  1   force =     0.00000000    0.00000000   -0.13285827
     atom    2 type  1   force =     0.00000000    0.00000000    0.13286225
     The ionic contribution  to forces
     atom    1 type  1   force =     0.00000000    0.00000000   -0.59452274
     atom    2 type  1   force =    -0.00000000   -0.00000000    0.59452274
     The local contribution  to forces
     atom    1 type  1   force =     0.00000000    0.00000000    0.72130430
     atom    2 type  1   force =     0.00000000    0.00000000   -0.72130809
     The core correction contribution to forces
     atom    1 type  1   force =     0.00000000    0.00000000    0.00581554
     atom    2 type  1   force =    -0.00000000   -0.00000000   -0.00577362
     The Hubbard contrib.    to forces
     atom    1 type  1   force =     0.00000000    0.00000000    0.00000000
     atom    2 type  1   force =     0.00000000    0.00000000    0.00000000
     The SCF correction term to forces
     atom    1 type  1   force =     0.00000000    0.00000000   -0.00001014
     atom    2 type  1   force =     0.00000000    0.00000000    0.00000883

     Total force =     0.000413     Total SCF correction =     0.000013


     Computing stress (Cartesian axis) and pressure


     negative rho (up, down):  5.461E-04 0.000E+00
          total   stress  (Ry/bohr**3)                   (kbar)     P=       -0.01
  -0.00000012   0.00000000   0.00000000           -0.02        0.00        0.00
   0.00000000  -0.00000012   0.00000000            0.00       -0.02        0.00
   0.00000000   0.00000000   0.00000003            0.00        0.00        0.00

     kinetic stress (kbar)    226.59      0.00      0.00
                                0.00    226.59      0.00
                                0.00      0.00    155.84

     local   stress (kbar)     57.95     -0.00     -0.00
                               -0.00     57.95     -0.00
                               -0.00     -0.00  -2557.82

     nonloc. stress (kbar)     46.35      0.00      0.00
                                0.00     46.35      0.00
                                0.00      0.00     58.03

     hartree stress (kbar)      0.30      0.00      0.00
                                0.00      0.30      0.00
                                0.00      0.00   1095.99

     exc-cor stress (kbar)     -4.21      0.00      0.00
                                0.00     -4.21      0.00
                                0.00      0.00     -1.04

     corecor stress (kbar)    -47.32      0.00     -0.00
                                0.00    -47.32     -0.00
                               -0.00     -0.00    -48.56

     ewald   stress (kbar)   -279.69     -0.00      0.00
                               -0.00   -279.69      0.00
                                0.00      0.00   1297.57

     hubbard stress (kbar)      0.00      0.00      0.00
                                0.00      0.00      0.00
                                0.00      0.00      0.00

     DFT-D   stress (kbar)      0.00      0.00      0.00
                                0.00      0.00      0.00
                                0.00      0.00      0.00

     XDM     stress (kbar)      0.00      0.00      0.00
                                0.00      0.00      0.00
                                0.00      0.00      0.00

     dft-nl  stress (kbar)      0.00      0.00      0.00
                                0.00      0.00      0.00
                                0.00      0.00      0.00

     TS-vdW  stress (kbar)      0.00      0.00      0.00
                                0.00      0.00      0.00
                                0.00      0.00      0.00


     Message from routine bfgs:
     history already reset at previous step: stopping
     Energy error            =      2.4E-08
     Gradient error          =      2.9E-04
     Cell gradient error     =      2.6E-08


     bfgs converged in   4 scf cycles and   1 bfgs steps
     (criteria: energy <  1.0E-07 Ry, force <  1.0E-06Ry/Bohr, cell <  1.0E-02kbar)

     End of BFGS Geometry Optimization

     Final enthalpy =     -36.7426344962 Ry

     File ./outdir/carbyne.bfgs deleted, as requested
Begin final coordinates
     new unit-cell volume =   6934.18753 a.u.^3 (  1027.54058 Ang^3 )
     density =      0.03882 g/cm^3

CELL_PARAMETERS (angstrom)
  20.000000000   0.000000000   0.000000000
   0.000000000  20.000000000   0.000000000
   0.000000000   0.000000000   2.568851447

ATOMIC_POSITIONS (angstrom)
C            10.0000000000       10.0000000000        0.0000692987
C            10.0000000000       10.0000000000        1.2511224320
End final coordinates



     Writing output data file ./outdir/carbyne.save/

     Final scf calculation at the relaxed structure.
     The G-vectors are recalculated for the final unit cell
     Results may differ from those at the preceding step.
 
     G-vector sticks info
     --------------------
     sticks:   dense  smooth     PW     G-vecs:    dense   smooth      PW
     Sum       56853   22733   6777              1309239   330753   53507
 


     bravais-lattice index     =            0
     lattice parameter (alat)  =      37.7945  a.u.
     unit-cell volume          =    6934.1875 (a.u.)^3
     number of atoms/cell      =            2
     number of atomic types    =            1
     number of electrons       =         8.00
     number of Kohn-Sham states=            4
     kinetic-energy cutoff     =      50.0000  Ry
     charge density cutoff     =     500.0000  Ry
     scf convergence threshold =      1.0E-09
     mixing beta               =       0.7000
     number of iterations used =            8  plain     mixing
     press convergence thresh. =      1.0E-02
     Exchange-correlation= SLA  PW   PBX  PBC
                           (   1   4   3   4   0   0   0)

     celldm(1)=  37.794522  celldm(2)=   0.000000  celldm(3)=   0.000000
     celldm(4)=   0.000000  celldm(5)=   0.000000  celldm(6)=   0.000000

     crystal axes: (cart. coord. in units of alat)
               a(1) = (   1.000000   0.000000   0.000000 )  
               a(2) = (   0.000000   1.000000   0.000000 )  
               a(3) = (   0.000000   0.000000   0.128443 )  

     reciprocal axes: (cart. coord. in units 2 pi/alat)
               b(1) = (  1.000000  0.000000  0.000000 )  
               b(2) = (  0.000000  1.000000  0.000000 )  
               b(3) = (  0.000000  0.000000  7.785581 )  


     PseudoPot. # 1 for C  read from file:
     ./pseudopot/C.pbe-n-kjpaw_psl.1.0.0.UPF
     MD5 check sum: 6fec8efd722f5d988670a8dc528584a2
     Pseudo is Projector augmented-wave + core cor, Zval =  4.0
     Generated using "atomic" code by A. Dal Corso  v.5.1.2
     Shape of augmentation charge: PSQ
     Using radial grid of 1073 points,  4 beta functions with: 
                l(1) =   0
                l(2) =   0
                l(3) =   1
                l(4) =   1
     Q(r) pseudized with 0 coefficients 


     atomic species   valence    mass     pseudopotential
        C              4.00    12.01070     C ( 1.00)

      8 Sym. Ops. (no inversion) found


                                    s                        frac. trans.

      isym =  1     identity                                     

 cryst.   s( 1) = (     1          0          0      )
                  (     0          1          0      )
                  (     0          0          1      )

 cart.    s( 1) = (  1.0000000  0.0000000  0.0000000 )
                  (  0.0000000  1.0000000  0.0000000 )
                  (  0.0000000  0.0000000  1.0000000 )


      isym =  2     180 deg rotation - cart. axis [0,0,1]        

 cryst.   s( 2) = (    -1          0          0      )
                  (     0         -1          0      )
                  (     0          0          1      )

 cart.    s( 2) = ( -1.0000000  0.0000000  0.0000000 )
                  (  0.0000000 -1.0000000  0.0000000 )
                  (  0.0000000  0.0000000  1.0000000 )


      isym =  3      90 deg rotation - cart. axis [0,0,-1]       

 cryst.   s( 3) = (     0         -1          0      )
                  (     1          0          0      )
                  (     0          0          1      )

 cart.    s( 3) = (  0.0000000  1.0000000  0.0000000 )
                  ( -1.0000000  0.0000000  0.0000000 )
                  (  0.0000000  0.0000000  1.0000000 )


      isym =  4      90 deg rotation - cart. axis [0,0,1]        

 cryst.   s( 4) = (     0          1          0      )
                  (    -1          0          0      )
                  (     0          0          1      )

 cart.    s( 4) = (  0.0000000 -1.0000000  0.0000000 )
                  (  1.0000000  0.0000000  0.0000000 )
                  (  0.0000000  0.0000000  1.0000000 )


      isym =  5     inv. 180 deg rotation - cart. axis [0,1,0]   

 cryst.   s( 5) = (     1          0          0      )
                  (     0         -1          0      )
                  (     0          0          1      )

 cart.    s( 5) = (  1.0000000  0.0000000  0.0000000 )
                  (  0.0000000 -1.0000000  0.0000000 )
                  (  0.0000000  0.0000000  1.0000000 )


      isym =  6     inv. 180 deg rotation - cart. axis [1,0,0]   

 cryst.   s( 6) = (    -1          0          0      )
                  (     0          1          0      )
                  (     0          0          1      )

 cart.    s( 6) = ( -1.0000000  0.0000000  0.0000000 )
                  (  0.0000000  1.0000000  0.0000000 )
                  (  0.0000000  0.0000000  1.0000000 )


      isym =  7     inv. 180 deg rotation - cart. axis [1,1,0]   

 cryst.   s( 7) = (     0         -1          0      )
                  (    -1          0          0      )
                  (     0          0          1      )

 cart.    s( 7) = (  0.0000000 -1.0000000  0.0000000 )
                  ( -1.0000000  0.0000000  0.0000000 )
                  (  0.0000000  0.0000000  1.0000000 )


      isym =  8     inv. 180 deg rotation - cart. axis [1,-1,0]  

 cryst.   s( 8) = (     0          1          0      )
                  (     1          0          0      )
                  (     0          0          1      )

 cart.    s( 8) = (  0.0000000  1.0000000  0.0000000 )
                  (  1.0000000  0.0000000  0.0000000 )
                  (  0.0000000  0.0000000  1.0000000 )


   Cartesian axes

     site n.     atom                  positions (alat units)
         1           C   tau(   1) = (   0.5000000   0.5000000   0.0000035  )
         2           C   tau(   2) = (   0.5000000   0.5000000   0.0625561  )

   Crystallographic axes

     site n.     atom                  positions (cryst. coord.)
         1           C   tau(   1) = (  0.5000000  0.5000000  0.0000270  )
         2           C   tau(   2) = (  0.5000000  0.5000000  0.4870357  )

     number of k points=     9
                       cart. coord. in units 2pi/alat
        k(    1) = (   0.0000000   0.0000000   0.0000000), wk =   0.1250000
        k(    2) = (   0.0000000   0.0000000   0.4865988), wk =   0.2500000
        k(    3) = (   0.0000000   0.0000000   0.9731976), wk =   0.2500000
        k(    4) = (   0.0000000   0.0000000   1.4597964), wk =   0.2500000
        k(    5) = (   0.0000000   0.0000000   1.9463952), wk =   0.2500000
        k(    6) = (   0.0000000   0.0000000   2.4329939), wk =   0.2500000
        k(    7) = (   0.0000000   0.0000000   2.9195927), wk =   0.2500000
        k(    8) = (   0.0000000   0.0000000   3.4061915), wk =   0.2500000
        k(    9) = (   0.0000000   0.0000000  -3.8927903), wk =   0.1250000

                       cryst. coord.
        k(    1) = (   0.0000000   0.0000000   0.0000000), wk =   0.1250000
        k(    2) = (   0.0000000   0.0000000   0.0625000), wk =   0.2500000
        k(    3) = (   0.0000000   0.0000000   0.1250000), wk =   0.2500000
        k(    4) = (   0.0000000   0.0000000   0.1875000), wk =   0.2500000
        k(    5) = (   0.0000000   0.0000000   0.2500000), wk =   0.2500000
        k(    6) = (   0.0000000   0.0000000   0.3125000), wk =   0.2500000
        k(    7) = (   0.0000000   0.0000000   0.3750000), wk =   0.2500000
        k(    8) = (   0.0000000   0.0000000   0.4375000), wk =   0.2500000
        k(    9) = (   0.0000000   0.0000000  -0.5000000), wk =   0.1250000

     Dense  grid:  1309239 G-vectors     FFT dimensions: ( 270, 270,  36)

     Smooth grid:   330753 G-vectors     FFT dimensions: ( 180, 180,  24)

     Dynamical RAM for                 wfc:       2.53 MB

     Dynamical RAM for     wfc (w. buffer):       2.53 MB

     Dynamical RAM for           str. fact:      19.98 MB

     Dynamical RAM for           local pot:       9.99 MB

     Dynamical RAM for          nlocal pot:      10.11 MB

     Dynamical RAM for                qrad:       1.03 MB

     Dynamical RAM for          rho,v,vnew:     120.00 MB

     Dynamical RAM for               rhoin:      40.00 MB

     Dynamical RAM for            rho*nmix:     319.64 MB

     Dynamical RAM for           G-vectors:      77.44 MB

     Dynamical RAM for          h,s,v(r/c):       0.00 MB

     Dynamical RAM for          <psi|beta>:       0.00 MB

     Dynamical RAM for                 psi:       5.05 MB

     Dynamical RAM for                hpsi:       5.05 MB

     Dynamical RAM for                spsi:       5.05 MB

     Dynamical RAM for      wfcinit/wfcrot:      10.11 MB

     Dynamical RAM for           addusdens:      51.37 MB

     Dynamical RAM for          addusforce:      43.52 MB

     Dynamical RAM for         addusstress:      45.31 MB

     Estimated static dynamical RAM per process >     740.77 MB

     Estimated max dynamical RAM per process >     792.14 MB

     Estimated total dynamical RAM >      21.66 GB

     Initial potential from superposition of free atoms

     starting charge    7.99992, renormalised to    8.00000

     negative rho (up, down):  3.998E-04 0.000E+00
     Starting wfcs are    8 randomized atomic wfcs
     Checking if some PAW data can be deallocated... 

     total cpu time spent up to now is      366.5 secs

     Self-consistent Calculation

     iteration #  1     ecut=    50.00 Ry     beta= 0.70
     Davidson diagonalization with overlap
     ethr =  1.00E-06,  avg # of iterations =  8.0

     negative rho (up, down):  5.182E-04 0.000E+00

     total cpu time spent up to now is      370.0 secs

     total energy              =     -36.67883294 Ry
     estimated scf accuracy    <       0.28299278 Ry

     iteration #  2     ecut=    50.00 Ry     beta= 0.70
     Davidson diagonalization with overlap
     ethr =  3.54E-03,  avg # of iterations =  2.0

     negative rho (up, down):  5.327E-04 0.000E+00

     total cpu time spent up to now is      372.9 secs

     total energy              =     -36.74133447 Ry
     estimated scf accuracy    <       0.00954073 Ry

     iteration #  3     ecut=    50.00 Ry     beta= 0.70
     Davidson diagonalization with overlap
     ethr =  1.19E-04,  avg # of iterations =  2.0

     negative rho (up, down):  5.421E-04 0.000E+00

     total cpu time spent up to now is      375.6 secs

     total energy              =     -36.74243247 Ry
     estimated scf accuracy    <       0.00029797 Ry

     iteration #  4     ecut=    50.00 Ry     beta= 0.70
     Davidson diagonalization with overlap
     ethr =  3.72E-06,  avg # of iterations =  2.7

     negative rho (up, down):  5.456E-04 0.000E+00

     total cpu time spent up to now is      378.4 secs

     total energy              =     -36.74262583 Ry
     estimated scf accuracy    <       0.00002543 Ry

     iteration #  5     ecut=    50.00 Ry     beta= 0.70
     Davidson diagonalization with overlap
     ethr =  3.18E-07,  avg # of iterations =  2.3

     negative rho (up, down):  5.455E-04 0.000E+00

     total cpu time spent up to now is      381.6 secs

     total energy              =     -36.74263331 Ry
     estimated scf accuracy    <       0.00000389 Ry

     iteration #  6     ecut=    50.00 Ry     beta= 0.70
     Davidson diagonalization with overlap
     ethr =  4.86E-08,  avg # of iterations =  2.3

     negative rho (up, down):  5.460E-04 0.000E+00

     total cpu time spent up to now is      384.5 secs

     total energy              =     -36.74263436 Ry
     estimated scf accuracy    <       0.00000020 Ry

     iteration #  7     ecut=    50.00 Ry     beta= 0.70
     Davidson diagonalization with overlap
     ethr =  2.52E-09,  avg # of iterations =  2.8

     negative rho (up, down):  5.460E-04 0.000E+00

     total cpu time spent up to now is      387.4 secs

     total energy              =     -36.74263449 Ry
     estimated scf accuracy    <          5.4E-09 Ry

     iteration #  8     ecut=    50.00 Ry     beta= 0.70
     Davidson diagonalization with overlap
     ethr =  6.77E-11,  avg # of iterations =  3.4

     negative rho (up, down):  5.461E-04 0.000E+00

     total cpu time spent up to now is      389.9 secs

     End of self-consistent calculation

          k = 0.0000 0.0000 0.0000 ( 41595 PWs)   bands (ev):

   -21.2469 -14.0425 -10.3067 -10.3067

     occupation numbers 
     1.0000   1.0000   1.0000   1.0000

          k = 0.0000 0.0000 0.4866 ( 41535 PWs)   bands (ev):

   -21.1966 -14.1485 -10.2227 -10.2227

     occupation numbers 
     1.0000   1.0000   1.0000   1.0000

          k = 0.0000 0.0000 0.9732 ( 41491 PWs)   bands (ev):

   -21.0463 -14.4535  -9.9710  -9.9710

     occupation numbers 
     1.0000   1.0000   1.0000   1.0000

          k = 0.0000 0.0000 1.4598 ( 41563 PWs)   bands (ev):

   -20.7983 -14.9233  -9.5523  -9.5523

     occupation numbers 
     1.0000   1.0000   1.0000   1.0000

          k = 0.0000 0.0000 1.9464 ( 41427 PWs)   bands (ev):

   -20.4565 -15.5135  -8.9679  -8.9679

     occupation numbers 
     1.0000   1.0000   1.0000   1.0000

          k = 0.0000 0.0000 2.4330 ( 41379 PWs)   bands (ev):

   -20.0266 -16.1792  -8.2200  -8.2200

     occupation numbers 
     1.0000   1.0000   1.0000   1.0000

          k = 0.0000 0.0000 2.9196 ( 41295 PWs)   bands (ev):

   -19.5169 -16.8799  -7.3128  -7.3128

     occupation numbers 
     1.0000   1.0000   1.0000   1.0000

          k = 0.0000 0.0000 3.4062 ( 41119 PWs)   bands (ev):

   -18.9415 -17.5790  -6.2582  -6.2582

     occupation numbers 
     1.0000   1.0000   1.0000   1.0000

          k = 0.0000 0.0000-3.8928 ( 41114 PWs)   bands (ev):

   -18.4338 -18.1293  -5.2980  -5.2980

     occupation numbers 
     1.0000   1.0000   1.0000   1.0000

     highest occupied level (ev):    -5.2980

!    total energy              =     -36.74263450 Ry

     total all-electron energy =      -152.270830 Ry
     estimated scf accuracy    <          9.5E-10 Ry

     The total energy is the sum of the following terms:
     one-electron contribution =    -101.80226646 Ry
     hartree contribution      =      51.69115755 Ry
     xc contribution           =      -9.08721738 Ry
     ewald contribution        =      34.79656305 Ry
     one-center paw contrib.   =     -12.34087124 Ry
      -> PAW hartree energy AE =       9.67236958 Ry
      -> PAW hartree energy PS =      -9.66338754 Ry
      -> PAW xc energy AE      =     -10.72420225 Ry
      -> PAW xc energy PS      =       4.54478548 Ry
      -> total E_H with PAW    =      51.70013959 Ry
      -> total E_XC with PAW   =     -15.26663415 Ry

     convergence has been achieved in   8 iterations

     negative rho (up, down):  5.461E-04 0.000E+00

     Forces acting on atoms (cartesian axes, Ry/au):

     atom    1 type  1   force =     0.00000000    0.00000000   -0.00028402
     atom    2 type  1   force =     0.00000000    0.00000000    0.00028402
     The non-local contrib.  to forces
     atom    1 type  1   force =     0.00000000    0.00000000   -0.13285949
     atom    2 type  1   force =     0.00000000    0.00000000    0.13286492
     The ionic contribution  to forces
     atom    1 type  1   force =     0.00000000    0.00000000   -0.59452274
     atom    2 type  1   force =    -0.00000000   -0.00000000    0.59452274
     The local contribution  to forces
     atom    1 type  1   force =     0.00000000    0.00000000    0.72132650
     atom    2 type  1   force =     0.00000000    0.00000000   -0.72132994
     The core correction contribution to forces
     atom    1 type  1   force =     0.00000000    0.00000000    0.00581585
     atom    2 type  1   force =    -0.00000000   -0.00000000   -0.00577394
     The Hubbard contrib.    to forces
     atom    1 type  1   force =     0.00000000    0.00000000    0.00000000
     atom    2 type  1   force =     0.00000000    0.00000000    0.00000000
     The SCF correction term to forces
     atom    1 type  1   force =    -0.00000000   -0.00000000   -0.00002327
     atom    2 type  1   force =     0.00000000   -0.00000000    0.00002110

     Total force =     0.000402     Total SCF correction =     0.000031


     Computing stress (Cartesian axis) and pressure


     negative rho (up, down):  5.461E-04 0.000E+00
          total   stress  (Ry/bohr**3)                   (kbar)     P=       -0.01
  -0.00000012   0.00000000   0.00000000           -0.02        0.00        0.00
   0.00000000  -0.00000012   0.00000000            0.00       -0.02        0.00
   0.00000000   0.00000000   0.00000003            0.00        0.00        0.00

     kinetic stress (kbar)    226.59      0.00      0.00
                                0.00    226.59      0.00
                                0.00      0.00    155.84

     local   stress (kbar)     57.95     -0.00     -0.00
                               -0.00     57.95      0.00
                               -0.00      0.00  -2557.82

     nonloc. stress (kbar)     46.35      0.00      0.00
                                0.00     46.35      0.00
                                0.00      0.00     58.03

     hartree stress (kbar)      0.30      0.00      0.00
                                0.00      0.30      0.00
                                0.00      0.00   1095.99

     exc-cor stress (kbar)     -4.21     -0.00      0.00
                               -0.00     -4.21      0.00
                                0.00      0.00     -1.04

     corecor stress (kbar)    -47.32     -0.00     -0.00
                               -0.00    -47.32     -0.00
                               -0.00     -0.00    -48.56

     ewald   stress (kbar)   -279.69     -0.00      0.00
                               -0.00   -279.69      0.00
                                0.00      0.00   1297.57

     hubbard stress (kbar)      0.00      0.00      0.00
                                0.00      0.00      0.00
                                0.00      0.00      0.00

     DFT-D   stress (kbar)      0.00      0.00      0.00
                                0.00      0.00      0.00
                                0.00      0.00      0.00

     XDM     stress (kbar)      0.00      0.00      0.00
                                0.00      0.00      0.00
                                0.00      0.00      0.00

     dft-nl  stress (kbar)      0.00      0.00      0.00
                                0.00      0.00      0.00
                                0.00      0.00      0.00

     TS-vdW  stress (kbar)      0.00      0.00      0.00
                                0.00      0.00      0.00
                                0.00      0.00      0.00



     Writing output data file ./outdir/carbyne.save/
 
     init_run     :     78.36s CPU     50.58s WALL (       2 calls)
     electrons    :     81.55s CPU     64.13s WALL (       5 calls)
     update_pot   :    149.24s CPU     86.94s WALL (       3 calls)
     forces       :    153.61s CPU     80.40s WALL (       5 calls)
     stress       :    285.14s CPU    150.13s WALL (       5 calls)

     Called by init_run:
     wfcinit      :      1.03s CPU      1.25s WALL (       2 calls)
     wfcinit:atom :      0.03s CPU      0.02s WALL (       2 calls)
     wfcinit:wfcr :      0.88s CPU      1.12s WALL (       2 calls)
     potinit      :     32.59s CPU     18.98s WALL (       2 calls)
     hinit0       :     42.71s CPU     28.19s WALL (       2 calls)

     Called by electrons:
     c_bands      :     17.80s CPU     10.70s WALL (      24 calls)
     sum_band     :     13.96s CPU      9.84s WALL (      24 calls)
     v_of_rho     :     41.66s CPU     36.69s WALL (      26 calls)
     v_h          :      4.23s CPU      2.92s WALL (      26 calls)
     v_xc         :     51.78s CPU     46.02s WALL (      36 calls)
     newd         :      5.51s CPU      3.10s WALL (      26 calls)
     PAW_pot      :      1.77s CPU      2.04s WALL (      29 calls)
     mix_rho      :      5.22s CPU      5.61s WALL (      24 calls)

     Called by c_bands:
     init_us_2    :      0.54s CPU      0.30s WALL (      53 calls)
     cegterg      :     13.73s CPU      7.79s WALL (      24 calls)

     Called by sum_band:
     sum_band:wei :      0.01s CPU      0.01s WALL (      24 calls)
     sum_band:loo :      2.86s CPU      1.47s WALL (      24 calls)
     sum_band:buf :      0.00s CPU      0.00s WALL (      24 calls)
     sum_band:ini :      0.24s CPU      0.12s WALL (      24 calls)
     sum_band:cal :      0.15s CPU      0.21s WALL (      27 calls)
     sum_band:bec :      0.09s CPU      0.09s WALL (      27 calls)
     addusdens    :      3.64s CPU      2.18s WALL (      24 calls)
     addusd:skk   :      0.03s CPU      0.01s WALL (      24 calls)
     addusd:dgemm :      0.83s CPU      0.54s WALL (      24 calls)
     addusd:qvan2 :      0.96s CPU      0.48s WALL (      24 calls)

     Called by *egterg:
     cdiaghg      :      0.25s CPU      1.41s WALL (      67 calls)
     cegterg:over :      0.46s CPU      0.23s WALL (      49 calls)
     cegterg:upda :      0.23s CPU      0.15s WALL (      49 calls)
     cegterg:last :      0.30s CPU      0.16s WALL (      49 calls)
     h_psi        :     12.49s CPU      6.44s WALL (      75 calls)
     s_psi        :      0.35s CPU      0.18s WALL (      75 calls)
     g_psi        :      0.07s CPU      0.03s WALL (      49 calls)

     Called by h_psi:
     h_psi:calbec :      0.37s CPU      0.26s WALL (      75 calls)
     vloc_psi     :     11.63s CPU      5.86s WALL (      75 calls)
     add_vuspsi   :      0.38s CPU      0.26s WALL (      75 calls)

     General routines
     calbec       :      0.68s CPU      0.72s WALL (     127 calls)
     fft          :     22.50s CPU     21.19s WALL (     459 calls)
     ffts         :      0.69s CPU      0.67s WALL (      50 calls)
     fftw         :      9.36s CPU      4.73s WALL (     664 calls)
     interpolate  :      2.34s CPU      2.49s WALL (      26 calls)
 
     Parallel routines

     PAW routines
     PAW_pot      :      1.77s CPU      2.04s WALL (      29 calls)
     PAW_symme    :      1.04s CPU      0.95s WALL (      53 calls)
 
     PWSCF        :  12m29.92s CPU   7m16.39s WALL

 
   This run was terminated on:  20:33:22  10Mar2021            

=------------------------------------------------------------------------------=
   JOB DONE.
=------------------------------------------------------------------------------=
