                                                                                      
                                       ``:oss/                                        
                           `.+s+.     .+ys--yh+     `./ss+.                           
                          -sh//yy+`   +yy   +yy    -+h+-oyy                           
                          -yh- .oyy/.-sh.   .syo-.:sy-  /yh                           
                 `.-.`    `yh+   -oyyyo.     `/syys:    oys      `.`                  
               `/+ssys+-` `sh+      `                   oys`   .:osyo`                
               -yh- ./syyooyo`                          .sys+/oyo--yh/                
               `yy+    .-:-.                             `-/+/:`  -sh-                
                /yh.                                              oys                 
          ``..---hho---------`   .---------..`      `.-----.`    -hd+---.             
       `./osmNMMMMMMMMMMMMMMMs. +NNMMMMMMMMNNmh+.   yNMMMMMNm-  oNMMMMMNmo++:`        
       +sy--/sdMMMhyyyyyyyNMMh- .oyNMMmyyyyyhNMMm+` -yMMMdyyo:` .oyyNMMNhs+syy`       
       -yy/   /MMM+.`-+/``mMMy-   `mMMh:`````.dMMN:` `MMMy-`-dhhy```mMMy:``+hs        
        -yy+` /MMMo:-mMM+`-oo/.    mMMh:     `dMMN/`  dMMm:`dMMMMy..MMMo-.+yo`        
         .sys`/MMMMNNMMMs-         mMMmyooooymMMNo:   oMMM/sMMMMMM++MMN//oh:          
          `sh+/MMMhyyMMMs- `-`     mMMMMMMMMMNmy+-`   -MMMhMMMsmMMmdMMd/yy+           
    `-/+++oyy-/MMM+.`/hh/.`mNm:`   mMMd+/////:-.`      NMMMMMd/:NMMMMMy:/yyo/:.`      
   +os+//:-..-oMMMo:--:::-/MMMo. .-mMMd+---`           hMMMMN+. oMMMMMo. `-+osyso:`   
   syo     `mNMMMMMNNNNNNNNMMMo.oNNMMMMMNNNN:`         +MMMMs:`  dMMMN/`     ``:syo   
   /yh`     :syyyyyyyyyyyyyyyy+.`+syyyyyyyyo:`         .oyys:`   .oyys:`        +yh   
   -yh-        ````````````````    `````````              ``        ``          oys   
   -+h/------------------------::::::::://////++++++++++++++++++++++///////::::/yd:   
   shdddddddddddddddddddddddddddddhhhhhhhhyyyyyssssssssssssssssyyyyyyyhhhhhhhddddh`   
                                                                                      
  S. Ponce, E. R. Margine, C. Verdi, and F. Giustino,                                 
                                                Comput. Phys. Commun. 209, 116 (2016) 
                                                                                      

     Program EPW v.5.3.1 starts on 12Mar2021 at 20:58:47 

     This program is part of the open-source Quantum ESPRESSO suite
     for quantum simulation of materials; please cite
         "P. Giannozzi et al., J. Phys.:Condens. Matter 21 395502 (2009);
         "P. Giannozzi et al., J. Phys.:Condens. Matter 29 465901 (2017);
          URL http://www.quantum-espresso.org", 
     in publications or presentations arising from this work. More details at
     http://www.quantum-espresso.org/quote

     Parallel version (MPI & OpenMP), running on      56 processor cores
     Number of MPI processes:                28
     Threads/MPI process:                     2

     MPI processes distributed on     1 nodes
     K-points division:     npool     =      28
     Waiting for input...
     Reading input from standard input

     WARNING: The specified dis_win_min is ignored.
              You should instead use bands_skipped = 'exclude_bands = ...'
              to control the lower bound of band manifold.

     Reading supplied temperature list.
                      
     ------------------------------------------------------------------------ 
                   RESTART - RESTART - RESTART - RESTART                         
     Restart is done without reading PWSCF save file.                  
     Be aware that some consistency checks are therefore not done.                  
     ------------------------------------------------------------------------ 
                      

     epw calculation of carbyne                                                 

     bravais-lattice index     =            0
     lattice parameter (a_0)   =       0.0000  a.u.
     unit-cell volume          =       0.0000 (a.u.)^3
     number of atoms/cell      =            0
     number of atomic types    =            0
     kinetic-energy cut-off    =       0.0000  Ry
     charge density cut-off    =       0.0000  Ry
     Exchange-correlation= not set
                           (  -1  -1  -1  -1  -1  -1  -1)


     celldm(1)=    0.00000  celldm(2)=    0.00000  celldm(3)=    0.00000
     celldm(4)=    0.00000  celldm(5)=    0.00000  celldm(6)=    0.00000

     crystal axes: (cart. coord. in units of a_0)
               a(1) = (  0.0000  0.0000  0.0000 )  
               a(2) = (  0.0000  0.0000  0.0000 )  
               a(3) = (  0.0000  0.0000  0.0000 )  

     reciprocal axes: (cart. coord. in units 2 pi/a_0)
               b(1) = (  0.0000  0.0000  0.0000 )  
               b(2) = (  0.0000  0.0000  0.0000 )  
               b(3) = (  0.0000  0.0000  0.0000 )  


     Atoms inside the unit cell: 

   Cartesian axes

     site n.  atom      mass           positions (a_0 units)

 
     No symmetry!

     G cutoff =    0.0000  (      0 G-vectors)     FFT grid: (  0,  0,  0)
     number of k points=    0
                       cart. coord. in units 2pi/a_0
     EPW          :      0.00s CPU      0.05s WALL

     EPW          :      0.00s CPU      0.05s WALL


     -------------------------------------------------------------------
     Using carbyne.ukk from disk
     -------------------------------------------------------------------

     Symmetries of Bravais lattice:  16
     Symmetries of crystal:           8

     Do not need to read .epb files; read .fmt files

     Use zone-centred Wigner-Seitz cells 
     Number of WS vectors for electrons       11
     Number of WS vectors for phonons       11
     Number of WS vectors for electron-phonon       11
     Maximum number of cores for efficient parallelization       66
     Results may improve by using use_ws == .TRUE. 

     Reading Hamiltonian, Dynamical matrix and EP vertex in Wann rep from file


     Finished reading Wann rep data from file

     ===================================================================
     Memory usage:  VmHWM =        83Mb
                   VmPeak =      3359Mb
     ===================================================================
     
     Using uniform q-mesh:    1   1  10
     Size of q point mesh for interpolation:         10
     Using uniform k-mesh:    1   1  10
     Size of k point mesh for interpolation:         20
     Max number of k points per pool:                2

     Fermi energy coarse grid =  -4.954711 eV

     Fermi energy is calculated from the fine k-mesh: Ef =  -4.669376 eV

     Warning: check if difference with Fermi level fine grid makes sense

     ===================================================================

              ibndmin =     2  ebndmin =   -14.282 eV
              ibndmax =     8  ebndmax =     4.740 eV


     Number of ep-matrix elements per pool :          294 ~=    2.30 Kb (@ 8 bytes/ DP)
      
     A selecq.fmt file was found but re-created because selecqread == .FALSE. 
     We only need to compute       10 q-points
      
      Electron-phonon vertex |g| (meV)

     iq =       1 coord.:    0.0000000   0.0000000   0.0000000
     ik =       1 coord.:    0.0000000   0.0000000   0.0000000
      ibnd     jbnd     imode   enk[eV]    enk+q[eV]  omega(q)[meV]   |g|[meV]
     ------------------------------------------------------------------------------
        2        2        1    -14.0150    -14.0150        0.0000007817    0.3579961690E+03
        2        2        2    -14.0150    -14.0150        0.0000011879    0.3579961690E+03
        2        2        3    -14.0150    -14.0150        0.0000050104    0.3579961690E+03
        2        2        4    -14.0150    -14.0150       60.1302038081    0.1241806386E-06
        2        2        5    -14.0150    -14.0150       60.1302038081    0.1241806386E-06
        2        2        6    -14.0150    -14.0150      182.6765769230    0.1449630014E+03
        2        3        1    -14.0150    -10.2879        0.0000007817    0.2059815094E+04
        2        3        2    -14.0150    -10.2879        0.0000011879    0.2059815094E+04
        2        3        3    -14.0150    -10.2879        0.0000050104    0.2059815094E+04
        2        3        4    -14.0150    -10.2879       60.1302038081    0.2870218448E-02
        2        3        5    -14.0150    -10.2879       60.1302038081    0.2870218448E-02
        2        3        6    -14.0150    -10.2879      182.6765769230    0.2268509910E-05
        2        4        1    -14.0150    -10.2879        0.0000007817    0.2059815094E+04
        2        4        2    -14.0150    -10.2879        0.0000011879    0.2059815094E+04
        2        4        3    -14.0150    -10.2879        0.0000050104    0.2059815094E+04
        2        4        4    -14.0150    -10.2879       60.1302038081    0.2870218448E-02
        2        4        5    -14.0150    -10.2879       60.1302038081    0.2870218448E-02
        2        4        6    -14.0150    -10.2879      182.6765769230    0.2268509910E-05
        2        5        1    -14.0150     -0.5141        0.0000007817    0.3850123939E+02
        2        5        2    -14.0150     -0.5141        0.0000011879    0.3850123939E+02
        2        5        3    -14.0150     -0.5141        0.0000050104    0.3850123939E+02
        2        5        4    -14.0150     -0.5141       60.1302038081    0.6282965849E-06
        2        5        5    -14.0150     -0.5141       60.1302038081    0.6282965849E-06
        2        5        6    -14.0150     -0.5141      182.6765769230    0.7802908975E+02
        2        6        1    -14.0150      0.0855        0.0000007817    0.1406395630E+02
        2        6        2    -14.0150      0.0855        0.0000011879    0.1406395630E+02
        2        6        3    -14.0150      0.0855        0.0000050104    0.1406395630E+02
        2        6        4    -14.0150      0.0855       60.1302038081    0.1706480315E-05
        2        6        5    -14.0150      0.0855       60.1302038081    0.1706480315E-05
        2        6        6    -14.0150      0.0855      182.6765769230    0.3007848831E+02
        2        7        1    -14.0150      0.1861        0.0000007817    0.1963713598E+05
        2        7        2    -14.0150      0.1861        0.0000011879    0.1963713598E+05
        2        7        3    -14.0150      0.1861        0.0000050104    0.1963713598E+05
        2        7        4    -14.0150      0.1861       60.1302038081    0.9820478678E-04
        2        7        5    -14.0150      0.1861       60.1302038081    0.9820478678E-04
        2        7        6    -14.0150      0.1861      182.6765769230    0.3922184459E-03
        2        8        1    -14.0150      0.1861        0.0000007817    0.1963713598E+05
        2        8        2    -14.0150      0.1861        0.0000011879    0.1963713598E+05
        2        8        3    -14.0150      0.1861        0.0000050104    0.1963713598E+05
        2        8        4    -14.0150      0.1861       60.1302038081    0.9820478678E-04
        2        8        5    -14.0150      0.1861       60.1302038081    0.9820478678E-04
        2        8        6    -14.0150      0.1861      182.6765769230    0.3922184459E-03
        3        2        1    -10.2879    -14.0150        0.0000007817    0.3212143015E+04
        3        2        2    -10.2879    -14.0150        0.0000011879    0.3212143015E+04
        3        2        3    -10.2879    -14.0150        0.0000050104    0.3212143015E+04
        3        2        4    -10.2879    -14.0150       60.1302038081    0.2886026044E-02
        3        2        5    -10.2879    -14.0150       60.1302038081    0.2886026044E-02
        3        2        6    -10.2879    -14.0150      182.6765769230    0.2264471763E-05
        3        3        1    -10.2879    -10.2879        0.0000007817    0.1749297571E+02
        3        3        2    -10.2879    -10.2879        0.0000011879    0.1749297571E+02
        3        3        3    -10.2879    -10.2879        0.0000050104    0.1749297571E+02
        3        3        4    -10.2879    -10.2879       60.1302038081    0.1956493401E-05
        3        3        5    -10.2879    -10.2879       60.1302038081    0.1956493401E-05
        3        3        6    -10.2879    -10.2879      182.6765769230    0.6835966604E+02
        3        4        1    -10.2879    -10.2879        0.0000007817    0.1749297571E+02
        3        4        2    -10.2879    -10.2879        0.0000011879    0.1749297571E+02
        3        4        3    -10.2879    -10.2879        0.0000050104    0.1749297571E+02
        3        4        4    -10.2879    -10.2879       60.1302038081    0.1956493401E-05
        3        4        5    -10.2879    -10.2879       60.1302038081    0.1956493401E-05
        3        4        6    -10.2879    -10.2879      182.6765769230    0.6835966604E+02
        3        5        1    -10.2879     -0.5141        0.0000007817    0.6806540916E+06
        3        5        2    -10.2879     -0.5141        0.0000011879    0.6806540916E+06
        3        5        3    -10.2879     -0.5141        0.0000050104    0.6806540916E+06
        3        5        4    -10.2879     -0.5141       60.1302038081    0.2725533488E-01
        3        5        5    -10.2879     -0.5141       60.1302038081    0.2725533488E-01
        3        5        6    -10.2879     -0.5141      182.6765769230    0.1410452085E-06
        3        6        1    -10.2879      0.0855        0.0000007817    0.2680721692E+06
        3        6        2    -10.2879      0.0855        0.0000011879    0.2680721692E+06
        3        6        3    -10.2879      0.0855        0.0000050104    0.2680721692E+06
        3        6        4    -10.2879      0.0855       60.1302038081    0.1033555791E-01
        3        6        5    -10.2879      0.0855       60.1302038081    0.1033555791E-01
        3        6        6    -10.2879      0.0855      182.6765769230    0.2597157349E-05
        3        7        1    -10.2879      0.1861        0.0000007817    0.7524253887E+02
        3        7        2    -10.2879      0.1861        0.0000011879    0.7524253887E+02
        3        7        3    -10.2879      0.1861        0.0000050104    0.7524253887E+02
        3        7        4    -10.2879      0.1861       60.1302038081    0.4166295334E-04
        3        7        5    -10.2879      0.1861       60.1302038081    0.4166295334E-04
        3        7        6    -10.2879      0.1861      182.6765769230    0.2515688364E+00
        3        8        1    -10.2879      0.1861        0.0000007817    0.7524253887E+02
        3        8        2    -10.2879      0.1861        0.0000011879    0.7524253887E+02
        3        8        3    -10.2879      0.1861        0.0000050104    0.7524253887E+02
        3        8        4    -10.2879      0.1861       60.1302038081    0.4166295334E-04
        3        8        5    -10.2879      0.1861       60.1302038081    0.4166295334E-04
        3        8        6    -10.2879      0.1861      182.6765769230    0.2515688364E+00
        4        2        1    -10.2879    -14.0150        0.0000007817    0.3212143015E+04
        4        2        2    -10.2879    -14.0150        0.0000011879    0.3212143015E+04
        4        2        3    -10.2879    -14.0150        0.0000050104    0.3212143015E+04
        4        2        4    -10.2879    -14.0150       60.1302038081    0.2886026044E-02
        4        2        5    -10.2879    -14.0150       60.1302038081    0.2886026044E-02
        4        2        6    -10.2879    -14.0150      182.6765769230    0.2264471763E-05
        4        3        1    -10.2879    -10.2879        0.0000007817    0.1749297571E+02
        4        3        2    -10.2879    -10.2879        0.0000011879    0.1749297571E+02
        4        3        3    -10.2879    -10.2879        0.0000050104    0.1749297571E+02
        4        3        4    -10.2879    -10.2879       60.1302038081    0.1956493401E-05
        4        3        5    -10.2879    -10.2879       60.1302038081    0.1956493401E-05
        4        3        6    -10.2879    -10.2879      182.6765769230    0.6835966604E+02
        4        4        1    -10.2879    -10.2879        0.0000007817    0.1749297571E+02
        4        4        2    -10.2879    -10.2879        0.0000011879    0.1749297571E+02
        4        4        3    -10.2879    -10.2879        0.0000050104    0.1749297571E+02
        4        4        4    -10.2879    -10.2879       60.1302038081    0.1956493401E-05
        4        4        5    -10.2879    -10.2879       60.1302038081    0.1956493401E-05
        4        4        6    -10.2879    -10.2879      182.6765769230    0.6835966604E+02
        4        5        1    -10.2879     -0.5141        0.0000007817    0.6806540916E+06
        4        5        2    -10.2879     -0.5141        0.0000011879    0.6806540916E+06
        4        5        3    -10.2879     -0.5141        0.0000050104    0.6806540916E+06
        4        5        4    -10.2879     -0.5141       60.1302038081    0.2725533488E-01
        4        5        5    -10.2879     -0.5141       60.1302038081    0.2725533488E-01
        4        5        6    -10.2879     -0.5141      182.6765769230    0.1410452085E-06
        4        6        1    -10.2879      0.0855        0.0000007817    0.2680721692E+06
        4        6        2    -10.2879      0.0855        0.0000011879    0.2680721692E+06
        4        6        3    -10.2879      0.0855        0.0000050104    0.2680721692E+06
        4        6        4    -10.2879      0.0855       60.1302038081    0.1033555791E-01
        4        6        5    -10.2879      0.0855       60.1302038081    0.1033555791E-01
        4        6        6    -10.2879      0.0855      182.6765769230    0.2597157349E-05
        4        7        1    -10.2879      0.1861        0.0000007817    0.7524253887E+02
        4        7        2    -10.2879      0.1861        0.0000011879    0.7524253887E+02
        4        7        3    -10.2879      0.1861        0.0000050104    0.7524253887E+02
        4        7        4    -10.2879      0.1861       60.1302038081    0.4166295334E-04
        4        7        5    -10.2879      0.1861       60.1302038081    0.4166295334E-04
        4        7        6    -10.2879      0.1861      182.6765769230    0.2515688364E+00
        4        8        1    -10.2879      0.1861        0.0000007817    0.7524253887E+02
        4        8        2    -10.2879      0.1861        0.0000011879    0.7524253887E+02
        4        8        3    -10.2879      0.1861        0.0000050104    0.7524253887E+02
        4        8        4    -10.2879      0.1861       60.1302038081    0.4166295334E-04
        4        8        5    -10.2879      0.1861       60.1302038081    0.4166295334E-04
        4        8        6    -10.2879      0.1861      182.6765769230    0.2515688364E+00
        5        2        1     -0.5141    -14.0150        0.0000007817    0.3720793736E+02
        5        2        2     -0.5141    -14.0150        0.0000011879    0.3720793736E+02
        5        2        3     -0.5141    -14.0150        0.0000050104    0.3720793736E+02
        5        2        4     -0.5141    -14.0150       60.1302038081    0.6839845607E-06
        5        2        5     -0.5141    -14.0150       60.1302038081    0.6839845607E-06
        5        2        6     -0.5141    -14.0150      182.6765769230    0.5897696384E+02
        5        3        1     -0.5141    -10.2879        0.0000007817    0.7857504546E+06
        5        3        2     -0.5141    -10.2879        0.0000011879    0.7857504546E+06
        5        3        3     -0.5141    -10.2879        0.0000050104    0.7857504546E+06
        5        3        4     -0.5141    -10.2879       60.1302038081    0.2728782467E-01
        5        3        5     -0.5141    -10.2879       60.1302038081    0.2728782467E-01
        5        3        6     -0.5141    -10.2879      182.6765769230    0.1437946944E-06
        5        4        1     -0.5141    -10.2879        0.0000007817    0.7857504546E+06
        5        4        2     -0.5141    -10.2879        0.0000011879    0.7857504546E+06
        5        4        3     -0.5141    -10.2879        0.0000050104    0.7857504546E+06
        5        4        4     -0.5141    -10.2879       60.1302038081    0.2728782467E-01
        5        4        5     -0.5141    -10.2879       60.1302038081    0.2728782467E-01
        5        4        6     -0.5141    -10.2879      182.6765769230    0.1437946944E-06
        5        5        1     -0.5141     -0.5141        0.0000007817    0.2045634409E+04
        5        5        2     -0.5141     -0.5141        0.0000011879    0.2045634409E+04
        5        5        3     -0.5141     -0.5141        0.0000050104    0.2045634409E+04
        5        5        4     -0.5141     -0.5141       60.1302038081    0.8505253770E-06
        5        5        5     -0.5141     -0.5141       60.1302038081    0.8505253770E-06
        5        5        6     -0.5141     -0.5141      182.6765769230    0.7167667446E+02
        5        6        1     -0.5141      0.0855        0.0000007817    0.2400723878E+03
        5        6        2     -0.5141      0.0855        0.0000011879    0.2400723878E+03
        5        6        3     -0.5141      0.0855        0.0000050104    0.2400723878E+03
        5        6        4     -0.5141      0.0855       60.1302038081    0.2197594047E-05
        5        6        5     -0.5141      0.0855       60.1302038081    0.2197594047E-05
        5        6        6     -0.5141      0.0855      182.6765769230    0.3389891148E+01
        5        7        1     -0.5141      0.1861        0.0000007817    0.2586080310E+05
        5        7        2     -0.5141      0.1861        0.0000011879    0.2586080310E+05
        5        7        3     -0.5141      0.1861        0.0000050104    0.2586080310E+05
        5        7        4     -0.5141      0.1861       60.1302038081    0.9233804038E+00
        5        7        5     -0.5141      0.1861       60.1302038081    0.9233804038E+00
        5        7        6     -0.5141      0.1861      182.6765769230    0.3487900847E-04
        5        8        1     -0.5141      0.1861        0.0000007817    0.2586080310E+05
        5        8        2     -0.5141      0.1861        0.0000011879    0.2586080310E+05
        5        8        3     -0.5141      0.1861        0.0000050104    0.2586080310E+05
        5        8        4     -0.5141      0.1861       60.1302038081    0.9233804038E+00
        5        8        5     -0.5141      0.1861       60.1302038081    0.9233804038E+00
        5        8        6     -0.5141      0.1861      182.6765769230    0.3487900847E-04
        6        2        1      0.0855    -14.0150        0.0000007817    0.1354828223E+02
        6        2        2      0.0855    -14.0150        0.0000011879    0.1354828223E+02
        6        2        3      0.0855    -14.0150        0.0000050104    0.1354828223E+02
        6        2        4      0.0855    -14.0150       60.1302038081    0.1761841901E-05
        6        2        5      0.0855    -14.0150       60.1302038081    0.1761841901E-05
        6        2        6      0.0855    -14.0150      182.6765769230    0.2249475671E+02
        6        3        1      0.0855    -10.2879        0.0000007817    0.3108480653E+06
        6        3        2      0.0855    -10.2879        0.0000011879    0.3108480653E+06
        6        3        3      0.0855    -10.2879        0.0000050104    0.3108480653E+06
        6        3        4      0.0855    -10.2879       60.1302038081    0.1039044107E-01
        6        3        5      0.0855    -10.2879       60.1302038081    0.1039044107E-01
        6        3        6      0.0855    -10.2879      182.6765769230    0.2651179645E-05
        6        4        1      0.0855    -10.2879        0.0000007817    0.3108480653E+06
        6        4        2      0.0855    -10.2879        0.0000011879    0.3108480653E+06
        6        4        3      0.0855    -10.2879        0.0000050104    0.3108480653E+06
        6        4        4      0.0855    -10.2879       60.1302038081    0.1039044107E-01
        6        4        5      0.0855    -10.2879       60.1302038081    0.1039044107E-01
        6        4        6      0.0855    -10.2879      182.6765769230    0.2651179645E-05
        6        5        1      0.0855     -0.5141        0.0000007817    0.2400728912E+03
        6        5        2      0.0855     -0.5141        0.0000011879    0.2400728912E+03
        6        5        3      0.0855     -0.5141        0.0000050104    0.2400728912E+03
        6        5        4      0.0855     -0.5141       60.1302038081    0.2218124132E-05
        6        5        5      0.0855     -0.5141       60.1302038081    0.2218124132E-05
        6        5        6      0.0855     -0.5141      182.6765769230    0.3388673631E+01
        6        6        1      0.0855      0.0855        0.0000007817    0.3754179533E+03
        6        6        2      0.0855      0.0855        0.0000011879    0.3754179533E+03
        6        6        3      0.0855      0.0855        0.0000050104    0.3754179533E+03
        6        6        4      0.0855      0.0855       60.1302038081    0.2403091120E-05
        6        6        5      0.0855      0.0855       60.1302038081    0.2403091120E-05
        6        6        6      0.0855      0.0855      182.6765769230    0.6315031964E+02
        6        7        1      0.0855      0.1861        0.0000007817    0.5726791370E+04
        6        7        2      0.0855      0.1861        0.0000011879    0.5726791370E+04
        6        7        3      0.0855      0.1861        0.0000050104    0.5726791370E+04
        6        7        4      0.0855      0.1861       60.1302038081    0.6638453088E+00
        6        7        5      0.0855      0.1861       60.1302038081    0.6638453088E+00
        6        7        6      0.0855      0.1861      182.6765769230    0.7228293242E-05
        6        8        1      0.0855      0.1861        0.0000007817    0.5726791370E+04
        6        8        2      0.0855      0.1861        0.0000011879    0.5726791370E+04
        6        8        3      0.0855      0.1861        0.0000050104    0.5726791370E+04
        6        8        4      0.0855      0.1861       60.1302038081    0.6638453088E+00
        6        8        5      0.0855      0.1861       60.1302038081    0.6638453088E+00
        6        8        6      0.0855      0.1861      182.6765769230    0.7228293242E-05
        7        2        1      0.1861    -14.0150        0.0000007817    0.1935684681E+05
        7        2        2      0.1861    -14.0150        0.0000011879    0.1935684681E+05
        7        2        3      0.1861    -14.0150        0.0000050104    0.1935684681E+05
        7        2        4      0.1861    -14.0150       60.1302038081    0.2517028805E-03
        7        2        5      0.1861    -14.0150       60.1302038081    0.2517028805E-03
        7        2        6      0.1861    -14.0150      182.6765769230    0.3217784924E-03
        7        3        1      0.1861    -10.2879        0.0000007817    0.7544659903E+02
        7        3        2      0.1861    -10.2879        0.0000011879    0.7544659903E+02
        7        3        3      0.1861    -10.2879        0.0000050104    0.7544659903E+02
        7        3        4      0.1861    -10.2879       60.1302038081    0.5052206407E-04
        7        3        5      0.1861    -10.2879       60.1302038081    0.5052206407E-04
        7        3        6      0.1861    -10.2879      182.6765769230    0.1705811814E+00
        7        4        1      0.1861    -10.2879        0.0000007817    0.7544659903E+02
        7        4        2      0.1861    -10.2879        0.0000011879    0.7544659903E+02
        7        4        3      0.1861    -10.2879        0.0000050104    0.7544659903E+02
        7        4        4      0.1861    -10.2879       60.1302038081    0.5052206407E-04
        7        4        5      0.1861    -10.2879       60.1302038081    0.5052206407E-04
        7        4        6      0.1861    -10.2879      182.6765769230    0.1705811814E+00
        7        5        1      0.1861     -0.5141        0.0000007817    0.2476251799E+05
        7        5        2      0.1861     -0.5141        0.0000011879    0.2476251799E+05
        7        5        3      0.1861     -0.5141        0.0000050104    0.2476251799E+05
        7        5        4      0.1861     -0.5141       60.1302038081    0.9233801237E+00
        7        5        5      0.1861     -0.5141       60.1302038081    0.9233801237E+00
        7        5        6      0.1861     -0.5141      182.6765769230    0.3486759418E-04
        7        6        1      0.1861      0.0855        0.0000007817    0.5666292495E+04
        7        6        2      0.1861      0.0855        0.0000011879    0.5666292495E+04
        7        6        3      0.1861      0.0855        0.0000050104    0.5666292495E+04
        7        6        4      0.1861      0.0855       60.1302038081    0.6638453851E+00
        7        6        5      0.1861      0.0855       60.1302038081    0.6638453851E+00
        7        6        6      0.1861      0.0855      182.6765769230    0.7228216684E-05
        7        7        1      0.1861      0.1861        0.0000007817    0.2137877346E+04
        7        7        2      0.1861      0.1861        0.0000011879    0.2137877346E+04
        7        7        3      0.1861      0.1861        0.0000050104    0.2137877346E+04
        7        7        4      0.1861      0.1861       60.1302038081    0.6589804834E-04
        7        7        5      0.1861      0.1861       60.1302038081    0.6589804834E-04
        7        7        6      0.1861      0.1861      182.6765769230    0.4513628580E+02
        7        8        1      0.1861      0.1861        0.0000007817    0.2137877346E+04
        7        8        2      0.1861      0.1861        0.0000011879    0.2137877346E+04
        7        8        3      0.1861      0.1861        0.0000050104    0.2137877346E+04
        7        8        4      0.1861      0.1861       60.1302038081    0.6589804834E-04
        7        8        5      0.1861      0.1861       60.1302038081    0.6589804834E-04
        7        8        6      0.1861      0.1861      182.6765769230    0.4513628580E+02
        8        2        1      0.1861    -14.0150        0.0000007817    0.1935684681E+05
        8        2        2      0.1861    -14.0150        0.0000011879    0.1935684681E+05
        8        2        3      0.1861    -14.0150        0.0000050104    0.1935684681E+05
        8        2        4      0.1861    -14.0150       60.1302038081    0.2517028805E-03
        8        2        5      0.1861    -14.0150       60.1302038081    0.2517028805E-03
        8        2        6      0.1861    -14.0150      182.6765769230    0.3217784924E-03
        8        3        1      0.1861    -10.2879        0.0000007817    0.7544659903E+02
        8        3        2      0.1861    -10.2879        0.0000011879    0.7544659903E+02
        8        3        3      0.1861    -10.2879        0.0000050104    0.7544659903E+02
        8        3        4      0.1861    -10.2879       60.1302038081    0.5052206407E-04
        8        3        5      0.1861    -10.2879       60.1302038081    0.5052206407E-04
        8        3        6      0.1861    -10.2879      182.6765769230    0.1705811814E+00
        8        4        1      0.1861    -10.2879        0.0000007817    0.7544659903E+02
        8        4        2      0.1861    -10.2879        0.0000011879    0.7544659903E+02
        8        4        3      0.1861    -10.2879        0.0000050104    0.7544659903E+02
        8        4        4      0.1861    -10.2879       60.1302038081    0.5052206407E-04
        8        4        5      0.1861    -10.2879       60.1302038081    0.5052206407E-04
        8        4        6      0.1861    -10.2879      182.6765769230    0.1705811814E+00
        8        5        1      0.1861     -0.5141        0.0000007817    0.2476251799E+05
        8        5        2      0.1861     -0.5141        0.0000011879    0.2476251799E+05
        8        5        3      0.1861     -0.5141        0.0000050104    0.2476251799E+05
        8        5        4      0.1861     -0.5141       60.1302038081    0.9233801237E+00
        8        5        5      0.1861     -0.5141       60.1302038081    0.9233801237E+00
        8        5        6      0.1861     -0.5141      182.6765769230    0.3486759418E-04
        8        6        1      0.1861      0.0855        0.0000007817    0.5666292495E+04
        8        6        2      0.1861      0.0855        0.0000011879    0.5666292495E+04
        8        6        3      0.1861      0.0855        0.0000050104    0.5666292495E+04
        8        6        4      0.1861      0.0855       60.1302038081    0.6638453851E+00
        8        6        5      0.1861      0.0855       60.1302038081    0.6638453851E+00
        8        6        6      0.1861      0.0855      182.6765769230    0.7228216684E-05
        8        7        1      0.1861      0.1861        0.0000007817    0.2137877346E+04
        8        7        2      0.1861      0.1861        0.0000011879    0.2137877346E+04
        8        7        3      0.1861      0.1861        0.0000050104    0.2137877346E+04
        8        7        4      0.1861      0.1861       60.1302038081    0.6589804834E-04
        8        7        5      0.1861      0.1861       60.1302038081    0.6589804834E-04
        8        7        6      0.1861      0.1861      182.6765769230    0.4513628580E+02
        8        8        1      0.1861      0.1861        0.0000007817    0.2137877346E+04
        8        8        2      0.1861      0.1861        0.0000011879    0.2137877346E+04
        8        8        3      0.1861      0.1861        0.0000050104    0.2137877346E+04
        8        8        4      0.1861      0.1861       60.1302038081    0.6589804834E-04
        8        8        5      0.1861      0.1861       60.1302038081    0.6589804834E-04
        8        8        6      0.1861      0.1861      182.6765769230    0.4513628580E+02
     ------------------------------------------------------------------------------

     ik =       2 coord.:    0.0000000   0.0000000   0.1000000
      ibnd     jbnd     imode   enk[eV]    enk+q[eV]  omega(q)[meV]   |g|[meV]
     ------------------------------------------------------------------------------
        2        2        1    -14.2820    -14.2820        0.0000007817    0.3491625527E+03
        2        2        2    -14.2820    -14.2820        0.0000011879    0.3491625527E+03
        2        2        3    -14.2820    -14.2820        0.0000050104    0.3491625527E+03
        2        2        4    -14.2820    -14.2820       60.1302038081    0.9032693013E-07
        2        2        5    -14.2820    -14.2820       60.1302038081    0.9032693013E-07
        2        2        6    -14.2820    -14.2820      182.6765769230    0.1475249931E+03
        2        3        1    -14.2820    -10.0741        0.0000007817    0.2778204485E+04
        2        3        2    -14.2820    -10.0741        0.0000011879    0.2778204485E+04
        2        3        3    -14.2820    -10.0741        0.0000050104    0.2778204485E+04
        2        3        4    -14.2820    -10.0741       60.1302038081    0.5251021345E+02
        2        3        5    -14.2820    -10.0741       60.1302038081    0.5251021345E+02
        2        3        6    -14.2820    -10.0741      182.6765769230    0.1937074863E-05
        2        4        1    -14.2820    -10.0741        0.0000007817    0.2778204485E+04
        2        4        2    -14.2820    -10.0741        0.0000011879    0.2778204485E+04
        2        4        3    -14.2820    -10.0741        0.0000050104    0.2778204485E+04
        2        4        4    -14.2820    -10.0741       60.1302038081    0.5251021345E+02
        2        4        5    -14.2820    -10.0741       60.1302038081    0.5251021345E+02
        2        4        6    -14.2820    -10.0741      182.6765769230    0.1937074863E-05
        2        5        1    -14.2820     -0.2972        0.0000007817    0.1979522483E+05
        2        5        2    -14.2820     -0.2972        0.0000011879    0.1979522483E+05
        2        5        3    -14.2820     -0.2972        0.0000050104    0.1979522483E+05
        2        5        4    -14.2820     -0.2972       60.1302038081    0.5389777406E-06
        2        5        5    -14.2820     -0.2972       60.1302038081    0.5389777406E-06
        2        5        6    -14.2820     -0.2972      182.6765769230    0.7826339478E+02
        2        6        1    -14.2820      0.3112        0.0000007817    0.9085474902E+04
        2        6        2    -14.2820      0.3112        0.0000011879    0.9085474902E+04
        2        6        3    -14.2820      0.3112        0.0000050104    0.9085474902E+04
        2        6        4    -14.2820      0.3112       60.1302038081    0.5015422858E-05
        2        6        5    -14.2820      0.3112       60.1302038081    0.5015422858E-05
        2        6        6    -14.2820      0.3112      182.6765769230    0.2970992389E+02
        2        7        1    -14.2820      0.4128        0.0000007817    0.2472378023E+05
        2        7        2    -14.2820      0.4128        0.0000011879    0.2472378023E+05
        2        7        3    -14.2820      0.4128        0.0000050104    0.2472378023E+05
        2        7        4    -14.2820      0.4128       60.1302038081    0.1007748720E+02
        2        7        5    -14.2820      0.4128       60.1302038081    0.1007748720E+02
        2        7        6    -14.2820      0.4128      182.6765769230    0.4316022460E-03
        2        8        1    -14.2820      0.4128        0.0000007817    0.2472378023E+05
        2        8        2    -14.2820      0.4128        0.0000011879    0.2472378023E+05
        2        8        3    -14.2820      0.4128        0.0000050104    0.2472378023E+05
        2        8        4    -14.2820      0.4128       60.1302038081    0.1007748720E+02
        2        8        5    -14.2820      0.4128       60.1302038081    0.1007748720E+02
        2        8        6    -14.2820      0.4128      182.6765769230    0.4316022460E-03
        3        2        1    -10.0741    -14.2820        0.0000007817    0.4147030989E+04
        3        2        2    -10.0741    -14.2820        0.0000011879    0.4147030989E+04
        3        2        3    -10.0741    -14.2820        0.0000050104    0.4147030989E+04
        3        2        4    -10.0741    -14.2820       60.1302038081    0.6058575691E+02
        3        2        5    -10.0741    -14.2820       60.1302038081    0.6058575691E+02
        3        2        6    -10.0741    -14.2820      182.6765769230    0.1953498992E-05
        3        3        1    -10.0741    -10.0741        0.0000007817    0.1742361706E+02
        3        3        2    -10.0741    -10.0741        0.0000011879    0.1742361706E+02
        3        3        3    -10.0741    -10.0741        0.0000050104    0.1742361706E+02
        3        3        4    -10.0741    -10.0741       60.1302038081    0.1293450371E-05
        3        3        5    -10.0741    -10.0741       60.1302038081    0.1293450371E-05
        3        3        6    -10.0741    -10.0741      182.6765769230    0.6743673223E+02
        3        4        1    -10.0741    -10.0741        0.0000007817    0.1742361706E+02
        3        4        2    -10.0741    -10.0741        0.0000011879    0.1742361706E+02
        3        4        3    -10.0741    -10.0741        0.0000050104    0.1742361706E+02
        3        4        4    -10.0741    -10.0741       60.1302038081    0.1293450371E-05
        3        4        5    -10.0741    -10.0741       60.1302038081    0.1293450371E-05
        3        4        6    -10.0741    -10.0741      182.6765769230    0.6743673223E+02
        3        5        1    -10.0741     -0.2972        0.0000007817    0.6864006237E+06
        3        5        2    -10.0741     -0.2972        0.0000011879    0.6864006237E+06
        3        5        3    -10.0741     -0.2972        0.0000050104    0.6864006237E+06
        3        5        4    -10.0741     -0.2972       60.1302038081    0.2565531358E+00
        3        5        5    -10.0741     -0.2972       60.1302038081    0.2565531358E+00
        3        5        6    -10.0741     -0.2972      182.6765769230    0.8198365644E-06
        3        6        1    -10.0741      0.3112        0.0000007817    0.2659776662E+06
        3        6        2    -10.0741      0.3112        0.0000011879    0.2659776662E+06
        3        6        3    -10.0741      0.3112        0.0000050104    0.2659776662E+06
        3        6        4    -10.0741      0.3112       60.1302038081    0.1106664403E-01
        3        6        5    -10.0741      0.3112       60.1302038081    0.1106664403E-01
        3        6        6    -10.0741      0.3112      182.6765769230    0.1461021790E-04
        3        7        1    -10.0741      0.4128        0.0000007817    0.1594945348E+04
        3        7        2    -10.0741      0.4128        0.0000011879    0.1594945348E+04
        3        7        3    -10.0741      0.4128        0.0000050104    0.1594945348E+04
        3        7        4    -10.0741      0.4128       60.1302038081    0.2270712967E-03
        3        7        5    -10.0741      0.4128       60.1302038081    0.2270712967E-03
        3        7        6    -10.0741      0.4128      182.6765769230    0.3074803981E+00
        3        8        1    -10.0741      0.4128        0.0000007817    0.1594945348E+04
        3        8        2    -10.0741      0.4128        0.0000011879    0.1594945348E+04
        3        8        3    -10.0741      0.4128        0.0000050104    0.1594945348E+04
        3        8        4    -10.0741      0.4128       60.1302038081    0.2270712967E-03
        3        8        5    -10.0741      0.4128       60.1302038081    0.2270712967E-03
        3        8        6    -10.0741      0.4128      182.6765769230    0.3074803981E+00
        4        2        1    -10.0741    -14.2820        0.0000007817    0.4147030989E+04
        4        2        2    -10.0741    -14.2820        0.0000011879    0.4147030989E+04
        4        2        3    -10.0741    -14.2820        0.0000050104    0.4147030989E+04
        4        2        4    -10.0741    -14.2820       60.1302038081    0.6058575691E+02
        4        2        5    -10.0741    -14.2820       60.1302038081    0.6058575691E+02
        4        2        6    -10.0741    -14.2820      182.6765769230    0.1953498992E-05
        4        3        1    -10.0741    -10.0741        0.0000007817    0.1742361706E+02
        4        3        2    -10.0741    -10.0741        0.0000011879    0.1742361706E+02
        4        3        3    -10.0741    -10.0741        0.0000050104    0.1742361706E+02
        4        3        4    -10.0741    -10.0741       60.1302038081    0.1293450371E-05
        4        3        5    -10.0741    -10.0741       60.1302038081    0.1293450371E-05
        4        3        6    -10.0741    -10.0741      182.6765769230    0.6743673223E+02
        4        4        1    -10.0741    -10.0741        0.0000007817    0.1742361706E+02
        4        4        2    -10.0741    -10.0741        0.0000011879    0.1742361706E+02
        4        4        3    -10.0741    -10.0741        0.0000050104    0.1742361706E+02
        4        4        4    -10.0741    -10.0741       60.1302038081    0.1293450371E-05
        4        4        5    -10.0741    -10.0741       60.1302038081    0.1293450371E-05
        4        4        6    -10.0741    -10.0741      182.6765769230    0.6743673223E+02
        4        5        1    -10.0741     -0.2972        0.0000007817    0.6864006237E+06
        4        5        2    -10.0741     -0.2972        0.0000011879    0.6864006237E+06
        4        5        3    -10.0741     -0.2972        0.0000050104    0.6864006237E+06
        4        5        4    -10.0741     -0.2972       60.1302038081    0.2565531358E+00
        4        5        5    -10.0741     -0.2972       60.1302038081    0.2565531358E+00
        4        5        6    -10.0741     -0.2972      182.6765769230    0.8198365644E-06
        4        6        1    -10.0741      0.3112        0.0000007817    0.2659776662E+06
        4        6        2    -10.0741      0.3112        0.0000011879    0.2659776662E+06
        4        6        3    -10.0741      0.3112        0.0000050104    0.2659776662E+06
        4        6        4    -10.0741      0.3112       60.1302038081    0.1106664403E-01
        4        6        5    -10.0741      0.3112       60.1302038081    0.1106664403E-01
        4        6        6    -10.0741      0.3112      182.6765769230    0.1461021790E-04
        4        7        1    -10.0741      0.4128        0.0000007817    0.1594945348E+04
        4        7        2    -10.0741      0.4128        0.0000011879    0.1594945348E+04
        4        7        3    -10.0741      0.4128        0.0000050104    0.1594945348E+04
        4        7        4    -10.0741      0.4128       60.1302038081    0.2270712967E-03
        4        7        5    -10.0741      0.4128       60.1302038081    0.2270712967E-03
        4        7        6    -10.0741      0.4128      182.6765769230    0.3074803981E+00
        4        8        1    -10.0741      0.4128        0.0000007817    0.1594945348E+04
        4        8        2    -10.0741      0.4128        0.0000011879    0.1594945348E+04
        4        8        3    -10.0741      0.4128        0.0000050104    0.1594945348E+04
        4        8        4    -10.0741      0.4128       60.1302038081    0.2270712967E-03
        4        8        5    -10.0741      0.4128       60.1302038081    0.2270712967E-03
        4        8        6    -10.0741      0.4128      182.6765769230    0.3074803981E+00
        5        2        1     -0.2972    -14.2820        0.0000007817    0.2377343974E+05
        5        2        2     -0.2972    -14.2820        0.0000011879    0.2377343974E+05
        5        2        3     -0.2972    -14.2820        0.0000050104    0.2377343974E+05
        5        2        4     -0.2972    -14.2820       60.1302038081    0.6689769810E-06
        5        2        5     -0.2972    -14.2820       60.1302038081    0.6689769810E-06
        5        2        6     -0.2972    -14.2820      182.6765769230    0.5844359917E+02
        5        3        1     -0.2972    -10.0741        0.0000007817    0.7909893623E+06
        5        3        2     -0.2972    -10.0741        0.0000011879    0.7909893623E+06
        5        3        3     -0.2972    -10.0741        0.0000050104    0.7909893623E+06
        5        3        4     -0.2972    -10.0741       60.1302038081    0.1133329761E+01
        5        3        5     -0.2972    -10.0741       60.1302038081    0.1133329761E+01
        5        3        6     -0.2972    -10.0741      182.6765769230    0.8287924483E-06
        5        4        1     -0.2972    -10.0741        0.0000007817    0.7909893623E+06
        5        4        2     -0.2972    -10.0741        0.0000011879    0.7909893623E+06
        5        4        3     -0.2972    -10.0741        0.0000050104    0.7909893623E+06
        5        4        4     -0.2972    -10.0741       60.1302038081    0.1133329761E+01
        5        4        5     -0.2972    -10.0741       60.1302038081    0.1133329761E+01
        5        4        6     -0.2972    -10.0741      182.6765769230    0.8287924483E-06
        5        5        1     -0.2972     -0.2972        0.0000007817    0.2025397863E+04
        5        5        2     -0.2972     -0.2972        0.0000011879    0.2025397863E+04
        5        5        3     -0.2972     -0.2972        0.0000050104    0.2025397863E+04
        5        5        4     -0.2972     -0.2972       60.1302038081    0.1835650956E-05
        5        5        5     -0.2972     -0.2972       60.1302038081    0.1835650956E-05
        5        5        6     -0.2972     -0.2972      182.6765769230    0.7116576009E+02
        5        6        1     -0.2972      0.3112        0.0000007817    0.2644618358E+03
        5        6        2     -0.2972      0.3112        0.0000011879    0.2644618358E+03
        5        6        3     -0.2972      0.3112        0.0000050104    0.2644618358E+03
        5        6        4     -0.2972      0.3112       60.1302038081    0.2007408864E-04
        5        6        5     -0.2972      0.3112       60.1302038081    0.2007408864E-04
        5        6        6     -0.2972      0.3112      182.6765769230    0.3105663719E+01
        5        7        1     -0.2972      0.4128        0.0000007817    0.2649386215E+05
        5        7        2     -0.2972      0.4128        0.0000011879    0.2649386215E+05
        5        7        3     -0.2972      0.4128        0.0000050104    0.2649386215E+05
        5        7        4     -0.2972      0.4128       60.1302038081    0.1362623254E+01
        5        7        5     -0.2972      0.4128       60.1302038081    0.1362623254E+01
        5        7        6     -0.2972      0.4128      182.6765769230    0.4231587201E-04
        5        8        1     -0.2972      0.4128        0.0000007817    0.2649386215E+05
        5        8        2     -0.2972      0.4128        0.0000011879    0.2649386215E+05
        5        8        3     -0.2972      0.4128        0.0000050104    0.2649386215E+05
        5        8        4     -0.2972      0.4128       60.1302038081    0.1362623254E+01
        5        8        5     -0.2972      0.4128       60.1302038081    0.1362623254E+01
        5        8        6     -0.2972      0.4128      182.6765769230    0.4231587201E-04
        6        2        1      0.3112    -14.2820        0.0000007817    0.1098735899E+05
        6        2        2      0.3112    -14.2820        0.0000011879    0.1098735899E+05
        6        2        3      0.3112    -14.2820        0.0000050104    0.1098735899E+05
        6        2        4      0.3112    -14.2820       60.1302038081    0.6674922518E-05
        6        2        5      0.3112    -14.2820       60.1302038081    0.6674922518E-05
        6        2        6      0.3112    -14.2820      182.6765769230    0.2195414703E+02
        6        3        1      0.3112    -10.0741        0.0000007817    0.3078646508E+06
        6        3        2      0.3112    -10.0741        0.0000011879    0.3078646508E+06
        6        3        3      0.3112    -10.0741        0.0000050104    0.3078646508E+06
        6        3        4      0.3112    -10.0741       60.1302038081    0.3989309735E+00
        6        3        5      0.3112    -10.0741       60.1302038081    0.3989309735E+00
        6        3        6      0.3112    -10.0741      182.6765769230    0.1494040910E-04
        6        4        1      0.3112    -10.0741        0.0000007817    0.3078646508E+06
        6        4        2      0.3112    -10.0741        0.0000011879    0.3078646508E+06
        6        4        3      0.3112    -10.0741        0.0000050104    0.3078646508E+06
        6        4        4      0.3112    -10.0741       60.1302038081    0.3989309735E+00
        6        4        5      0.3112    -10.0741       60.1302038081    0.3989309735E+00
        6        4        6      0.3112    -10.0741      182.6765769230    0.1494040910E-04
        6        5        1      0.3112     -0.2972        0.0000007817    0.2647544919E+03
        6        5        2      0.3112     -0.2972        0.0000011879    0.2647544919E+03
        6        5        3      0.3112     -0.2972        0.0000050104    0.2647544919E+03
        6        5        4      0.3112     -0.2972       60.1302038081    0.2023588437E-04
        6        5        5      0.3112     -0.2972       60.1302038081    0.2023588437E-04
        6        5        6      0.3112     -0.2972      182.6765769230    0.3104937869E+01
        6        6        1      0.3112      0.3112        0.0000007817    0.3605863278E+03
        6        6        2      0.3112      0.3112        0.0000011879    0.3605863278E+03
        6        6        3      0.3112      0.3112        0.0000050104    0.3605863278E+03
        6        6        4      0.3112      0.3112       60.1302038081    0.1488856179E-04
        6        6        5      0.3112      0.3112       60.1302038081    0.1488856179E-04
        6        6        6      0.3112      0.3112      182.6765769230    0.6301190885E+02
        6        7        1      0.3112      0.4128        0.0000007817    0.5742647100E+04
        6        7        2      0.3112      0.4128        0.0000011879    0.5742647100E+04
        6        7        3      0.3112      0.4128        0.0000050104    0.5742647100E+04
        6        7        4      0.3112      0.4128       60.1302038081    0.7850395330E+00
        6        7        5      0.3112      0.4128       60.1302038081    0.7850395330E+00
        6        7        6      0.3112      0.4128      182.6765769230    0.1514637391E-04
        6        8        1      0.3112      0.4128        0.0000007817    0.5742647100E+04
        6        8        2      0.3112      0.4128        0.0000011879    0.5742647100E+04
        6        8        3      0.3112      0.4128        0.0000050104    0.5742647100E+04
        6        8        4      0.3112      0.4128       60.1302038081    0.7850395330E+00
        6        8        5      0.3112      0.4128       60.1302038081    0.7850395330E+00
        6        8        6      0.3112      0.4128      182.6765769230    0.1514637391E-04
        7        2        1      0.4128    -14.2820        0.0000007817    0.2373426036E+05
        7        2        2      0.4128    -14.2820        0.0000011879    0.2373426036E+05
        7        2        3      0.4128    -14.2820        0.0000050104    0.2373426036E+05
        7        2        4      0.4128    -14.2820       60.1302038081    0.1416330756E+02
        7        2        5      0.4128    -14.2820       60.1302038081    0.1416330756E+02
        7        2        6      0.4128    -14.2820      182.6765769230    0.3457783444E-03
        7        3        1      0.4128    -10.0741        0.0000007817    0.1618118580E+04
        7        3        2      0.4128    -10.0741        0.0000011879    0.1618118580E+04
        7        3        3      0.4128    -10.0741        0.0000050104    0.1618118580E+04
        7        3        4      0.4128    -10.0741       60.1302038081    0.1137292088E-03
        7        3        5      0.4128    -10.0741       60.1302038081    0.1137292088E-03
        7        3        6      0.4128    -10.0741      182.6765769230    0.3995144515E+00
        7        4        1      0.4128    -10.0741        0.0000007817    0.1618118580E+04
        7        4        2      0.4128    -10.0741        0.0000011879    0.1618118580E+04
        7        4        3      0.4128    -10.0741        0.0000050104    0.1618118580E+04
        7        4        4      0.4128    -10.0741       60.1302038081    0.1137292088E-03
        7        4        5      0.4128    -10.0741       60.1302038081    0.1137292088E-03
        7        4        6      0.4128    -10.0741      182.6765769230    0.3995144515E+00
        7        5        1      0.4128     -0.2972        0.0000007817    0.2538567022E+05
        7        5        2      0.4128     -0.2972        0.0000011879    0.2538567022E+05
        7        5        3      0.4128     -0.2972        0.0000050104    0.2538567022E+05
        7        5        4      0.4128     -0.2972       60.1302038081    0.1373513330E+01
        7        5        5      0.4128     -0.2972       60.1302038081    0.1373513330E+01
        7        5        6      0.4128     -0.2972      182.6765769230    0.4227079160E-04
        7        6        1      0.4128      0.3112        0.0000007817    0.5682830937E+04
        7        6        2      0.4128      0.3112        0.0000011879    0.5682830937E+04
        7        6        3      0.4128      0.3112        0.0000050104    0.5682830937E+04
        7        6        4      0.4128      0.3112       60.1302038081    0.7854789907E+00
        7        6        5      0.4128      0.3112       60.1302038081    0.7854789907E+00
        7        6        6      0.4128      0.3112      182.6765769230    0.1514392505E-04
        7        7        1      0.4128      0.4128        0.0000007817    0.2138301932E+04
        7        7        2      0.4128      0.4128        0.0000011879    0.2138301932E+04
        7        7        3      0.4128      0.4128        0.0000050104    0.2138301932E+04
        7        7        4      0.4128      0.4128       60.1302038081    0.4519796953E-04
        7        7        5      0.4128      0.4128       60.1302038081    0.4519796953E-04
        7        7        6      0.4128      0.4128      182.6765769230    0.4501821972E+02
        7        8        1      0.4128      0.4128        0.0000007817    0.2138301932E+04
        7        8        2      0.4128      0.4128        0.0000011879    0.2138301932E+04
        7        8        3      0.4128      0.4128        0.0000050104    0.2138301932E+04
        7        8        4      0.4128      0.4128       60.1302038081    0.4519796953E-04
        7        8        5      0.4128      0.4128       60.1302038081    0.4519796953E-04
        7        8        6      0.4128      0.4128      182.6765769230    0.4501821972E+02
        8        2        1      0.4128    -14.2820        0.0000007817    0.2373426036E+05
        8        2        2      0.4128    -14.2820        0.0000011879    0.2373426036E+05
        8        2        3      0.4128    -14.2820        0.0000050104    0.2373426036E+05
        8        2        4      0.4128    -14.2820       60.1302038081    0.1416330756E+02
        8        2        5      0.4128    -14.2820       60.1302038081    0.1416330756E+02
        8        2        6      0.4128    -14.2820      182.6765769230    0.3457783444E-03
        8        3        1      0.4128    -10.0741        0.0000007817    0.1618118580E+04
        8        3        2      0.4128    -10.0741        0.0000011879    0.1618118580E+04
        8        3        3      0.4128    -10.0741        0.0000050104    0.1618118580E+04
        8        3        4      0.4128    -10.0741       60.1302038081    0.1137292088E-03
        8        3        5      0.4128    -10.0741       60.1302038081    0.1137292088E-03
        8        3        6      0.4128    -10.0741      182.6765769230    0.3995144515E+00
        8        4        1      0.4128    -10.0741        0.0000007817    0.1618118580E+04
        8        4        2      0.4128    -10.0741        0.0000011879    0.1618118580E+04
        8        4        3      0.4128    -10.0741        0.0000050104    0.1618118580E+04
        8        4        4      0.4128    -10.0741       60.1302038081    0.1137292088E-03
        8        4        5      0.4128    -10.0741       60.1302038081    0.1137292088E-03
        8        4        6      0.4128    -10.0741      182.6765769230    0.3995144515E+00
        8        5        1      0.4128     -0.2972        0.0000007817    0.2538567022E+05
        8        5        2      0.4128     -0.2972        0.0000011879    0.2538567022E+05
        8        5        3      0.4128     -0.2972        0.0000050104    0.2538567022E+05
        8        5        4      0.4128     -0.2972       60.1302038081    0.1373513330E+01
        8        5        5      0.4128     -0.2972       60.1302038081    0.1373513330E+01
        8        5        6      0.4128     -0.2972      182.6765769230    0.4227079160E-04
        8        6        1      0.4128      0.3112        0.0000007817    0.5682830937E+04
        8        6        2      0.4128      0.3112        0.0000011879    0.5682830937E+04
        8        6        3      0.4128      0.3112        0.0000050104    0.5682830937E+04
        8        6        4      0.4128      0.3112       60.1302038081    0.7854789907E+00
        8        6        5      0.4128      0.3112       60.1302038081    0.7854789907E+00
        8        6        6      0.4128      0.3112      182.6765769230    0.1514392505E-04
        8        7        1      0.4128      0.4128        0.0000007817    0.2138301932E+04
        8        7        2      0.4128      0.4128        0.0000011879    0.2138301932E+04
        8        7        3      0.4128      0.4128        0.0000050104    0.2138301932E+04
        8        7        4      0.4128      0.4128       60.1302038081    0.4519796953E-04
        8        7        5      0.4128      0.4128       60.1302038081    0.4519796953E-04
        8        7        6      0.4128      0.4128      182.6765769230    0.4501821972E+02
        8        8        1      0.4128      0.4128        0.0000007817    0.2138301932E+04
        8        8        2      0.4128      0.4128        0.0000011879    0.2138301932E+04
        8        8        3      0.4128      0.4128        0.0000050104    0.2138301932E+04
        8        8        4      0.4128      0.4128       60.1302038081    0.4519796953E-04
        8        8        5      0.4128      0.4128       60.1302038081    0.4519796953E-04
        8        8        6      0.4128      0.4128      182.6765769230    0.4501821972E+02
     ------------------------------------------------------------------------------

     ik =       3 coord.:    0.0000000   0.0000000   0.2000000
      ibnd     jbnd     imode   enk[eV]    enk+q[eV]  omega(q)[meV]   |g|[meV]
     ------------------------------------------------------------------------------
        2        2        1    -15.0055    -15.0055        0.0000007817    0.3283067906E+03
        2        2        2    -15.0055    -15.0055        0.0000011879    0.3283067906E+03
        2        2        3    -15.0055    -15.0055        0.0000050104    0.3283067906E+03
        2        2        4    -15.0055    -15.0055       60.1302038081    0.4337440896E-06
        2        2        5    -15.0055    -15.0055       60.1302038081    0.4337440896E-06
        2        2        6    -15.0055    -15.0055      182.6765769230    0.1548538502E+03
        2        3        1    -15.0055     -9.4344        0.0000007817    0.5430950710E+04
        2        3        2    -15.0055     -9.4344        0.0000011879    0.5430950710E+04
        2        3        3    -15.0055     -9.4344        0.0000050104    0.5430950710E+04
        2        3        4    -15.0055     -9.4344       60.1302038081    0.9240751095E+02
        2        3        5    -15.0055     -9.4344       60.1302038081    0.9240751095E+02
        2        3        6    -15.0055     -9.4344      182.6765769230    0.3982123035E-06
        2        4        1    -15.0055     -9.4344        0.0000007817    0.5430950710E+04
        2        4        2    -15.0055     -9.4344        0.0000011879    0.5430950710E+04
        2        4        3    -15.0055     -9.4344        0.0000050104    0.5430950710E+04
        2        4        4    -15.0055     -9.4344       60.1302038081    0.9240751095E+02
        2        4        5    -15.0055     -9.4344       60.1302038081    0.9240751095E+02
        2        4        6    -15.0055     -9.4344      182.6765769230    0.3982123035E-06
        2        5        1    -15.0055      0.3507        0.0000007817    0.3548437879E+05
        2        5        2    -15.0055      0.3507        0.0000011879    0.3548437879E+05
        2        5        3    -15.0055      0.3507        0.0000050104    0.3548437879E+05
        2        5        4    -15.0055      0.3507       60.1302038081    0.4327772728E-04
        2        5        5    -15.0055      0.3507       60.1302038081    0.4327772728E-04
        2        5        6    -15.0055      0.3507      182.6765769230    0.8012707705E+02
        2        6        1    -15.0055      0.9880        0.0000007817    0.1542573366E+05
        2        6        2    -15.0055      0.9880        0.0000011879    0.1542573366E+05
        2        6        3    -15.0055      0.9880        0.0000050104    0.1542573366E+05
        2        6        4    -15.0055      0.9880       60.1302038081    0.2538878833E-04
        2        6        5    -15.0055      0.9880       60.1302038081    0.2538878833E-04
        2        6        6    -15.0055      0.9880      182.6765769230    0.2900153378E+02
        2        7        1    -15.0055      1.0924        0.0000007817    0.7949353373E+05
        2        7        2    -15.0055      1.0924        0.0000011879    0.7949353373E+05
        2        7        3    -15.0055      1.0924        0.0000050104    0.7949353373E+05
        2        7        4    -15.0055      1.0924       60.1302038081    0.1738869363E+02
        2        7        5    -15.0055      1.0924       60.1302038081    0.1738869363E+02
        2        7        6    -15.0055      1.0924      182.6765769230    0.4563394720E-03
        2        8        1    -15.0055      1.0924        0.0000007817    0.7949353373E+05
        2        8        2    -15.0055      1.0924        0.0000011879    0.7949353373E+05
        2        8        3    -15.0055      1.0924        0.0000050104    0.7949353373E+05
        2        8        4    -15.0055      1.0924       60.1302038081    0.1738869363E+02
        2        8        5    -15.0055      1.0924       60.1302038081    0.1738869363E+02
        2        8        6    -15.0055      1.0924      182.6765769230    0.4563394720E-03
        3        2        1     -9.4344    -15.0055        0.0000007817    0.7432638754E+04
        3        2        2     -9.4344    -15.0055        0.0000011879    0.7432638754E+04
        3        2        3     -9.4344    -15.0055        0.0000050104    0.7432638754E+04
        3        2        4     -9.4344    -15.0055       60.1302038081    0.1122291159E+03
        3        2        5     -9.4344    -15.0055       60.1302038081    0.1122291159E+03
        3        2        6     -9.4344    -15.0055      182.6765769230    0.3963704779E-06
        3        3        1     -9.4344     -9.4344        0.0000007817    0.1704591693E+02
        3        3        2     -9.4344     -9.4344        0.0000011879    0.1704591693E+02
        3        3        3     -9.4344     -9.4344        0.0000050104    0.1704591693E+02
        3        3        4     -9.4344     -9.4344       60.1302038081    0.9982642770E-06
        3        3        5     -9.4344     -9.4344       60.1302038081    0.9982642770E-06
        3        3        6     -9.4344     -9.4344      182.6765769230    0.6412268498E+02
        3        4        1     -9.4344     -9.4344        0.0000007817    0.1704591693E+02
        3        4        2     -9.4344     -9.4344        0.0000011879    0.1704591693E+02
        3        4        3     -9.4344     -9.4344        0.0000050104    0.1704591693E+02
        3        4        4     -9.4344     -9.4344       60.1302038081    0.9982642770E-06
        3        4        5     -9.4344     -9.4344       60.1302038081    0.9982642770E-06
        3        4        6     -9.4344     -9.4344      182.6765769230    0.6412268498E+02
        3        5        1     -9.4344      0.3507        0.0000007817    0.7040044741E+06
        3        5        2     -9.4344      0.3507        0.0000011879    0.7040044741E+06
        3        5        3     -9.4344      0.3507        0.0000050104    0.7040044741E+06
        3        5        4     -9.4344      0.3507       60.1302038081    0.1751323246E+00
        3        5        5     -9.4344      0.3507       60.1302038081    0.1751323246E+00
        3        5        6     -9.4344      0.3507      182.6765769230    0.1873101713E-03
        3        6        1     -9.4344      0.9880        0.0000007817    0.2593086955E+06
        3        6        2     -9.4344      0.9880        0.0000011879    0.2593086955E+06
        3        6        3     -9.4344      0.9880        0.0000050104    0.2593086955E+06
        3        6        4     -9.4344      0.9880       60.1302038081    0.3216840541E+00
        3        6        5     -9.4344      0.9880       60.1302038081    0.3216840541E+00
        3        6        6     -9.4344      0.9880      182.6765769230    0.7023433261E-04
        3        7        1     -9.4344      1.0924        0.0000007817    0.4173604651E+04
        3        7        2     -9.4344      1.0924        0.0000011879    0.4173604651E+04
        3        7        3     -9.4344      1.0924        0.0000050104    0.4173604651E+04
        3        7        4     -9.4344      1.0924       60.1302038081    0.9074377722E-04
        3        7        5     -9.4344      1.0924       60.1302038081    0.9074377722E-04
        3        7        6     -9.4344      1.0924      182.6765769230    0.5588232659E+01
        3        8        1     -9.4344      1.0924        0.0000007817    0.4173604651E+04
        3        8        2     -9.4344      1.0924        0.0000011879    0.4173604651E+04
        3        8        3     -9.4344      1.0924        0.0000050104    0.4173604651E+04
        3        8        4     -9.4344      1.0924       60.1302038081    0.9074377722E-04
        3        8        5     -9.4344      1.0924       60.1302038081    0.9074377722E-04
        3        8        6     -9.4344      1.0924      182.6765769230    0.5588232659E+01
        4        2        1     -9.4344    -15.0055        0.0000007817    0.7432638754E+04
        4        2        2     -9.4344    -15.0055        0.0000011879    0.7432638754E+04
        4        2        3     -9.4344    -15.0055        0.0000050104    0.7432638754E+04
        4        2        4     -9.4344    -15.0055       60.1302038081    0.1122291159E+03
        4        2        5     -9.4344    -15.0055       60.1302038081    0.1122291159E+03
        4        2        6     -9.4344    -15.0055      182.6765769230    0.3963704779E-06
        4        3        1     -9.4344     -9.4344        0.0000007817    0.1704591693E+02
        4        3        2     -9.4344     -9.4344        0.0000011879    0.1704591693E+02
        4        3        3     -9.4344     -9.4344        0.0000050104    0.1704591693E+02
        4        3        4     -9.4344     -9.4344       60.1302038081    0.9982642770E-06
        4        3        5     -9.4344     -9.4344       60.1302038081    0.9982642770E-06
        4        3        6     -9.4344     -9.4344      182.6765769230    0.6412268498E+02
        4        4        1     -9.4344     -9.4344        0.0000007817    0.1704591693E+02
        4        4        2     -9.4344     -9.4344        0.0000011879    0.1704591693E+02
        4        4        3     -9.4344     -9.4344        0.0000050104    0.1704591693E+02
        4        4        4     -9.4344     -9.4344       60.1302038081    0.9982642770E-06
        4        4        5     -9.4344     -9.4344       60.1302038081    0.9982642770E-06
        4        4        6     -9.4344     -9.4344      182.6765769230    0.6412268498E+02
        4        5        1     -9.4344      0.3507        0.0000007817    0.7040044741E+06
        4        5        2     -9.4344      0.3507        0.0000011879    0.7040044741E+06
        4        5        3     -9.4344      0.3507        0.0000050104    0.7040044741E+06
        4        5        4     -9.4344      0.3507       60.1302038081    0.1751323246E+00
        4        5        5     -9.4344      0.3507       60.1302038081    0.1751323246E+00
        4        5        6     -9.4344      0.3507      182.6765769230    0.1873101713E-03
        4        6        1     -9.4344      0.9880        0.0000007817    0.2593086955E+06
        4        6        2     -9.4344      0.9880        0.0000011879    0.2593086955E+06
        4        6        3     -9.4344      0.9880        0.0000050104    0.2593086955E+06
        4        6        4     -9.4344      0.9880       60.1302038081    0.3216840541E+00
        4        6        5     -9.4344      0.9880       60.1302038081    0.3216840541E+00
        4        6        6     -9.4344      0.9880      182.6765769230    0.7023433261E-04
        4        7        1     -9.4344      1.0924        0.0000007817    0.4173604651E+04
        4        7        2     -9.4344      1.0924        0.0000011879    0.4173604651E+04
        4        7        3     -9.4344      1.0924        0.0000050104    0.4173604651E+04
        4        7        4     -9.4344      1.0924       60.1302038081    0.9074377722E-04
        4        7        5     -9.4344      1.0924       60.1302038081    0.9074377722E-04
        4        7        6     -9.4344      1.0924      182.6765769230    0.5588232659E+01
        4        8        1     -9.4344      1.0924        0.0000007817    0.4173604651E+04
        4        8        2     -9.4344      1.0924        0.0000011879    0.4173604651E+04
        4        8        3     -9.4344      1.0924        0.0000050104    0.4173604651E+04
        4        8        4     -9.4344      1.0924       60.1302038081    0.9074377722E-04
        4        8        5     -9.4344      1.0924       60.1302038081    0.9074377722E-04
        4        8        6     -9.4344      1.0924      182.6765769230    0.5588232659E+01
        5        2        1      0.3507    -15.0055        0.0000007817    0.4386297529E+05
        5        2        2      0.3507    -15.0055        0.0000011879    0.4386297529E+05
        5        2        3      0.3507    -15.0055        0.0000050104    0.4386297529E+05
        5        2        4      0.3507    -15.0055       60.1302038081    0.5180732942E-04
        5        2        5      0.3507    -15.0055       60.1302038081    0.5180732942E-04
        5        2        6      0.3507    -15.0055      182.6765769230    0.5797174939E+02
        5        3        1      0.3507     -9.4344        0.0000007817    0.8066448487E+06
        5        3        2      0.3507     -9.4344        0.0000011879    0.8066448487E+06
        5        3        3      0.3507     -9.4344        0.0000050104    0.8066448487E+06
        5        3        4      0.3507     -9.4344       60.1302038081    0.1375606238E+01
        5        3        5      0.3507     -9.4344       60.1302038081    0.1375606238E+01
        5        3        6      0.3507     -9.4344      182.6765769230    0.1906875072E-03
        5        4        1      0.3507     -9.4344        0.0000007817    0.8066448487E+06
        5        4        2      0.3507     -9.4344        0.0000011879    0.8066448487E+06
        5        4        3      0.3507     -9.4344        0.0000050104    0.8066448487E+06
        5        4        4      0.3507     -9.4344       60.1302038081    0.1375606238E+01
        5        4        5      0.3507     -9.4344       60.1302038081    0.1375606238E+01
        5        4        6      0.3507     -9.4344      182.6765769230    0.1906875072E-03
        5        5        1      0.3507      0.3507        0.0000007817    0.1961253156E+04
        5        5        2      0.3507      0.3507        0.0000011879    0.1961253156E+04
        5        5        3      0.3507      0.3507        0.0000050104    0.1961253156E+04
        5        5        4      0.3507      0.3507       60.1302038081    0.1883961000E-03
        5        5        5      0.3507      0.3507       60.1302038081    0.1883961000E-03
        5        5        6      0.3507      0.3507      182.6765769230    0.6963608811E+02
        5        6        1      0.3507      0.9880        0.0000007817    0.3500798427E+03
        5        6        2      0.3507      0.9880        0.0000011879    0.3500798427E+03
        5        6        3      0.3507      0.9880        0.0000050104    0.3500798427E+03
        5        6        4      0.3507      0.9880       60.1302038081    0.8714991382E-04
        5        6        5      0.3507      0.9880       60.1302038081    0.8714991382E-04
        5        6        6      0.3507      0.9880      182.6765769230    0.2292934955E+01
        5        7        1      0.3507      1.0924        0.0000007817    0.2849733404E+05
        5        7        2      0.3507      1.0924        0.0000011879    0.2849733404E+05
        5        7        3      0.3507      1.0924        0.0000050104    0.2849733404E+05
        5        7        4      0.3507      1.0924       60.1302038081    0.5068393219E+01
        5        7        5      0.3507      1.0924       60.1302038081    0.5068393219E+01
        5        7        6      0.3507      1.0924      182.6765769230    0.3929702304E-04
        5        8        1      0.3507      1.0924        0.0000007817    0.2849733404E+05
        5        8        2      0.3507      1.0924        0.0000011879    0.2849733404E+05
        5        8        3      0.3507      1.0924        0.0000050104    0.2849733404E+05
        5        8        4      0.3507      1.0924       60.1302038081    0.5068393219E+01
        5        8        5      0.3507      1.0924       60.1302038081    0.5068393219E+01
        5        8        6      0.3507      1.0924      182.6765769230    0.3929702304E-04
        6        2        1      0.9880    -15.0055        0.0000007817    0.1920131930E+05
        6        2        2      0.9880    -15.0055        0.0000011879    0.1920131930E+05
        6        2        3      0.9880    -15.0055        0.0000050104    0.1920131930E+05
        6        2        4      0.9880    -15.0055       60.1302038081    0.3751525435E-04
        6        2        5      0.9880    -15.0055       60.1302038081    0.3751525435E-04
        6        2        6      0.9880    -15.0055      182.6765769230    0.2077586041E+02
        6        3        1      0.9880     -9.4344        0.0000007817    0.2983849497E+06
        6        3        2      0.9880     -9.4344        0.0000011879    0.2983849497E+06
        6        3        3      0.9880     -9.4344        0.0000050104    0.2983849497E+06
        6        3        4      0.9880     -9.4344       60.1302038081    0.3490515962E+00
        6        3        5      0.9880     -9.4344       60.1302038081    0.3490515962E+00
        6        3        6      0.9880     -9.4344      182.6765769230    0.7180413465E-04
        6        4        1      0.9880     -9.4344        0.0000007817    0.2983849497E+06
        6        4        2      0.9880     -9.4344        0.0000011879    0.2983849497E+06
        6        4        3      0.9880     -9.4344        0.0000050104    0.2983849497E+06
        6        4        4      0.9880     -9.4344       60.1302038081    0.3490515962E+00
        6        4        5      0.9880     -9.4344       60.1302038081    0.3490515962E+00
        6        4        6      0.9880     -9.4344      182.6765769230    0.7180413465E-04
        6        5        1      0.9880      0.3507        0.0000007817    0.3514690656E+03
        6        5        2      0.9880      0.3507        0.0000011879    0.3514690656E+03
        6        5        3      0.9880      0.3507        0.0000050104    0.3514690656E+03
        6        5        4      0.9880      0.3507       60.1302038081    0.8775518030E-04
        6        5        5      0.9880      0.3507       60.1302038081    0.8775518030E-04
        6        5        6      0.9880      0.3507      182.6765769230    0.2293116138E+01
[...]
     8    9    4      0.0000      0.0000   -0.809674E-01   -0.915046E-01    0.188729E-01    0.935390E-02    0.149718E+00    0.385373E+00
     8    9    5      0.0000      0.0000   -0.283801E-02    0.208726E-01    0.303612E-01    0.118351E+00    0.130827E+01    0.732277E-01
     8    9    6      0.0000      0.0000   -0.231676E-03    0.217389E-02   -0.135549E-03    0.391947E-03    0.366327E+00    0.423827E+00
     8    9    7      0.0000      0.0000    0.142946E-03   -0.389127E-03   -0.119717E-02    0.182966E-02    0.134352E+01    0.122376E+01
     8    9    8      0.0000      0.0000    0.170330E-04   -0.884723E-05   -0.368145E-05   -0.871867E-06    0.134272E+01   -0.360688E-01
     8    9    9      0.0000      0.0000    0.000000E+00    0.000000E+00    0.000000E+00    0.000000E+00   -0.154808E+01    0.277556E-16

     ik =       9 coord.:   0.0000000   0.0000000   0.8000000
     ik   iband   jband Enk[meV] Emk[meV] vmef_x[Ryd*bohr] vmef_y[Ryd*bohr] vmef_z[Ryd*bohr]
     9    2    2      0.0000      0.0000    0.000000E+00    0.000000E+00    0.000000E+00    0.000000E+00   -0.358196E+00   -0.291434E-15
     9    2    3      0.0000      0.0000   -0.128009E-09   -0.444633E-10    0.148562E-10    0.966708E-11    0.445635E+00   -0.199961E+01
     9    2    4      0.0000      0.0000   -0.540228E+00    0.173219E+00    0.396108E+00    0.278518E-01    0.815687E+00   -0.473085E+00
     9    2    5      0.0000      0.0000    0.368296E+00   -0.148443E+00    0.567317E+00   -0.150639E-02    0.100909E+01   -0.996668E+00
     9    2    6      0.0000      0.0000   -0.679518E-08   -0.644515E-08    0.145267E-07   -0.106601E-07    0.551556E+00   -0.135347E+01
     9    2    7      0.0000      0.0000   -0.810875E-08   -0.157696E-08   -0.703567E-08    0.416706E-08   -0.811210E+00   -0.260036E+00
     9    2    8      0.0000      0.0000   -0.197985E-02   -0.933700E-02    0.195266E-01   -0.207434E-01   -0.910083E+00   -0.441289E+00
     9    2    9      0.0000      0.0000    0.121915E-01   -0.257469E-01   -0.941627E-02    0.156206E-02    0.946326E+00    0.474239E+00
     9    3    2      0.0000      0.0000   -0.128009E-09    0.444635E-10    0.148565E-10   -0.966701E-11    0.720074E+00    0.270031E+01
     9    3    3      0.0000      0.0000    0.000000E+00    0.000000E+00    0.000000E+00    0.000000E+00   -0.220364E+01   -0.333067E-15
     9    3    4      0.0000      0.0000    0.793905E-02   -0.326454E-02   -0.600798E-02    0.579359E-04    0.342125E+00   -0.273228E+00
     9    3    5      0.0000      0.0000   -0.537575E-02    0.268337E-02   -0.855485E-02    0.707347E-03    0.181696E+00   -0.608364E+00
     9    3    6      0.0000      0.0000   -0.150704E-06    0.638476E-06   -0.539294E-06   -0.213603E-06   -0.264714E+00    0.212484E+00
     9    3    7      0.0000      0.0000    0.109116E-06   -0.961523E-07    0.291477E-07   -0.192851E-06    0.314249E+00    0.198194E+00
     9    3    8      0.0000      0.0000    0.199993E-02    0.672186E-02   -0.130849E-01    0.163386E-01   -0.524366E+00   -0.616531E+00
     9    3    9      0.0000      0.0000   -0.741893E-02    0.195721E-01    0.680558E-02   -0.169570E-02   -0.395960E+00   -0.706797E+00
     9    4    2      0.0000      0.0000   -0.540228E+00   -0.173219E+00    0.396108E+00   -0.278518E-01    0.302241E+01    0.238528E+01
     9    4    3      0.0000      0.0000    0.793905E-02    0.326454E-02   -0.600798E-02   -0.579359E-04    0.343606E-01    0.153698E+00
     9    4    4      0.0000      0.0000   -0.634344E-23    0.000000E+00   -0.940583E-24    0.000000E+00   -0.818667E+01    0.000000E+00
     9    4    5      0.0000      0.0000    0.000000E+00    0.000000E+00    0.000000E+00    0.000000E+00    0.000000E+00    0.000000E+00
     9    4    6      0.0000      0.0000   -0.240026E+00   -0.187058E+00    0.204610E+00    0.591746E-01   -0.926395E-01    0.494171E+00
     9    4    7      0.0000      0.0000    0.928242E-01    0.512447E-01   -0.736448E-01   -0.917480E-02    0.439301E+00   -0.373269E+00
     9    4    8      0.0000      0.0000    0.165426E-05   -0.143941E-05    0.331426E-06   -0.887520E-06    0.669118E+00   -0.904491E-01
     9    4    9      0.0000      0.0000    0.191406E-06    0.260027E-05    0.872027E-06    0.170348E-05   -0.194972E+01   -0.503812E+00
     9    5    2      0.0000      0.0000    0.368296E+00    0.148443E+00    0.567317E+00    0.150639E-02    0.122089E+01    0.610072E+01
     9    5    3      0.0000      0.0000   -0.537575E-02   -0.268337E-02   -0.855485E-02   -0.707347E-03    0.263651E-01    0.444726E+00
     9    5    4      0.0000      0.0000    0.000000E+00    0.000000E+00    0.000000E+00    0.000000E+00    0.000000E+00    0.000000E+00
     9    5    5      0.0000      0.0000    0.634344E-23    0.000000E+00    0.940583E-24    0.000000E+00   -0.135238E+01    0.000000E+00
     9    5    6      0.0000      0.0000    0.158027E+00    0.142810E+00    0.285399E+00    0.105597E+00   -0.944554E-01    0.814159E+00
     9    5    7      0.0000      0.0000   -0.621878E-01   -0.405019E-01   -0.103984E+00   -0.207320E-01    0.290187E+00   -0.246748E+00
     9    5    8      0.0000      0.0000   -0.123558E-05    0.191187E-05    0.271299E-07    0.804548E-07    0.163855E+00    0.461940E+00
     9    5    9      0.0000      0.0000    0.353502E-06   -0.152945E-05    0.137892E-05    0.310151E-05    0.656757E-01    0.397981E-01
     9    6    2      0.0000      0.0000   -0.679518E-08    0.644515E-08    0.145267E-07    0.106601E-07    0.151949E+01   -0.171825E+01
     9    6    3      0.0000      0.0000   -0.150704E-06   -0.638476E-06   -0.539294E-06    0.213603E-06    0.110050E+01    0.142146E+01
     9    6    4      0.0000      0.0000   -0.240026E+00    0.187058E+00    0.204610E+00   -0.591746E-01   -0.550738E+00    0.158768E+01
     9    6    5      0.0000      0.0000    0.158027E+00   -0.142810E+00    0.285399E+00   -0.105597E+00   -0.159401E+00    0.119169E+01
     9    6    6      0.0000      0.0000    0.000000E+00    0.000000E+00    0.000000E+00    0.000000E+00    0.302996E+01   -0.222045E-15
     9    6    7      0.0000      0.0000    0.106056E-06    0.479750E-07   -0.730990E-07   -0.172409E-07   -0.854983E+00   -0.270359E+00
     9    6    8      0.0000      0.0000    0.297817E-01    0.474306E-01   -0.656286E-01    0.153736E+00    0.816623E+00   -0.433391E+00
     9    6    9      0.0000      0.0000   -0.151089E-01    0.166473E+00    0.487107E-01   -0.276393E-01   -0.115613E+01    0.796882E+00
     9    7    2      0.0000      0.0000   -0.810875E-08    0.157697E-08   -0.703568E-08   -0.416706E-08   -0.114461E+00    0.107809E+01
     9    7    3      0.0000      0.0000    0.109116E-06    0.961523E-07    0.291477E-07    0.192851E-06    0.157262E+00   -0.147068E-01
     9    7    4      0.0000      0.0000    0.928242E-01   -0.512447E-01   -0.736448E-01    0.917480E-02    0.148753E+00    0.437449E+00
     9    7    5      0.0000      0.0000   -0.621878E-01    0.405019E-01   -0.103984E+00    0.207320E-01    0.252241E+00   -0.567580E-01
     9    7    6      0.0000      0.0000    0.106056E-06   -0.479750E-07   -0.730990E-07    0.172409E-07   -0.852370E+00    0.215058E+00
     9    7    7      0.0000      0.0000    0.000000E+00    0.000000E+00    0.000000E+00    0.000000E+00    0.768254E+00    0.166533E-15
     9    7    8      0.0000      0.0000    0.208205E-02    0.488176E-02   -0.842801E-02    0.134113E-01    0.143323E+00    0.221992E+00
     9    7    9      0.0000      0.0000   -0.388967E-02    0.153551E-01    0.496958E-02   -0.186256E-02   -0.161290E+01   -0.120874E+01
     9    8    2      0.0000      0.0000   -0.197985E-02    0.933700E-02    0.195266E-01    0.207434E-01    0.158756E+01   -0.590351E+00
     9    8    3      0.0000      0.0000    0.199993E-02   -0.672186E-02   -0.130849E-01   -0.163386E-01   -0.132438E+01    0.231273E+01
     9    8    4      0.0000      0.0000    0.165426E-05    0.143941E-05    0.331426E-06    0.887520E-06    0.176691E+01   -0.221583E+00
     9    8    5      0.0000      0.0000   -0.123558E-05   -0.191187E-05    0.271299E-07   -0.804548E-07    0.821631E+00   -0.518442E+00
     9    8    6      0.0000      0.0000    0.297817E-01   -0.474306E-01   -0.656286E-01   -0.153736E+00    0.857789E+00    0.434890E+00
     9    8    7      0.0000      0.0000    0.208205E-02   -0.488176E-02   -0.842801E-02   -0.134113E-01    0.144546E+00   -0.214039E+00
     9    8    8      0.0000      0.0000   -0.180253E-14    0.000000E+00   -0.352889E-14    0.000000E+00    0.143454E+01    0.000000E+00
     9    8    9      0.0000      0.0000    0.000000E+00    0.000000E+00    0.000000E+00    0.000000E+00    0.000000E+00    0.000000E+00
     9    9    2      0.0000      0.0000    0.121915E-01    0.257469E-01   -0.941627E-02   -0.156206E-02   -0.135924E+01    0.116718E+01
     9    9    3      0.0000      0.0000   -0.741893E-02   -0.195721E-01    0.680558E-02    0.169570E-02   -0.530205E+00    0.154725E+00
     9    9    4      0.0000      0.0000    0.191406E-06   -0.260027E-05    0.872027E-06   -0.170348E-05   -0.128179E+01   -0.307921E+00
     9    9    5      0.0000      0.0000    0.353502E-06    0.152945E-05    0.137892E-05   -0.310151E-05    0.919204E+00   -0.281514E+00
     9    9    6      0.0000      0.0000   -0.151089E-01   -0.166473E+00    0.487107E-01    0.276393E-01   -0.113641E+01   -0.723354E+00
     9    9    7      0.0000      0.0000   -0.388967E-02   -0.153551E-01    0.496958E-02    0.186256E-02   -0.161230E+01    0.119191E+01
     9    9    8      0.0000      0.0000    0.000000E+00    0.000000E+00    0.000000E+00    0.000000E+00    0.000000E+00    0.000000E+00
     9    9    9      0.0000      0.0000    0.180253E-14    0.000000E+00    0.352889E-14    0.000000E+00    0.494095E+01    0.000000E+00

     ik =      10 coord.:   0.0000000   0.0000000   0.9000000
     ik   iband   jband Enk[meV] Emk[meV] vmef_x[Ryd*bohr] vmef_y[Ryd*bohr] vmef_z[Ryd*bohr]
    10    2    2      0.0000      0.0000    0.000000E+00    0.000000E+00    0.000000E+00    0.000000E+00    0.297580E+01   -0.166533E-15
    10    2    3      0.0000      0.0000    0.214802E-09    0.182156E-09    0.200314E-09   -0.581676E-10   -0.251932E+00    0.684941E+00
    10    2    4      0.0000      0.0000    0.248342E+00    0.355653E+00   -0.352096E+00   -0.396042E+00   -0.208655E+01    0.179895E+01
    10    2    5      0.0000      0.0000    0.236649E-01   -0.529397E+00   -0.314159E-01   -0.432638E+00   -0.317855E-01   -0.119936E+01
    10    2    6      0.0000      0.0000   -0.194225E-08   -0.135352E-09    0.751806E-09    0.220698E-09    0.921401E+00    0.227025E+00
    10    2    7      0.0000      0.0000   -0.107537E-07   -0.555345E-08    0.393581E-08   -0.119072E-07    0.470697E+00   -0.336344E+00
    10    2    8      0.0000      0.0000    0.264628E-02   -0.182953E-01   -0.208877E-01    0.146056E-01   -0.223560E+00   -0.111341E+01
    10    2    9      0.0000      0.0000   -0.155607E-01   -0.201864E-01    0.294901E-02   -0.182493E-01   -0.542005E+00    0.502333E-01
    10    3    2      0.0000      0.0000    0.214802E-09   -0.182156E-09    0.200314E-09    0.581673E-10   -0.381193E+00   -0.844350E+00
    10    3    3      0.0000      0.0000    0.000000E+00    0.000000E+00    0.000000E+00    0.000000E+00    0.129479E+01   -0.222045E-15
    10    3    4      0.0000      0.0000    0.233179E-02   -0.469678E-02   -0.215840E-02    0.603148E-02   -0.624805E-01   -0.312299E+00
    10    3    5      0.0000      0.0000   -0.575221E-02    0.281950E-02   -0.440649E-02    0.284250E-02    0.492985E+00   -0.665543E+00
    10    3    6      0.0000      0.0000    0.599251E-09    0.262701E-08    0.433495E-09   -0.746163E-09   -0.317849E+00   -0.114637E+00
    10    3    7      0.0000      0.0000    0.202079E-07    0.873190E-08   -0.122052E-08    0.738825E-08    0.158362E-01   -0.166332E+00
    10    3    8      0.0000      0.0000   -0.468642E-02    0.174674E-02    0.617859E-02    0.306228E-02    0.379100E+00    0.119889E+00
    10    3    9      0.0000      0.0000   -0.277174E-02    0.631415E-02   -0.471474E-02    0.166898E-02    0.985732E+00    0.802793E+00
    10    4    2      0.0000      0.0000    0.248342E+00   -0.355653E+00   -0.352096E+00    0.396042E+00   -0.207492E+01   -0.201008E+01
    10    4    3      0.0000      0.0000    0.233179E-02    0.469678E-02   -0.215840E-02   -0.603148E-02   -0.315083E-01    0.354228E+00
    10    4    4      0.0000      0.0000   -0.277949E-21    0.000000E+00   -0.165657E-22    0.000000E+00    0.122137E+01    0.000000E+00
    10    4    5      0.0000      0.0000    0.000000E+00    0.000000E+00    0.000000E+00    0.000000E+00    0.000000E+00    0.000000E+00
    10    4    6      0.0000      0.0000    0.399284E-01   -0.224635E+00   -0.805223E-01    0.266843E+00   -0.660141E+00   -0.104689E+01
    10    4    7      0.0000      0.0000   -0.281819E-01    0.789255E-01    0.454632E-01   -0.917337E-01   -0.118159E+01    0.202925E+00
    10    4    8      0.0000      0.0000    0.152448E-05    0.988203E-06    0.588834E-06    0.870175E-06   -0.108199E+01    0.274156E+01
    10    4    9      0.0000      0.0000    0.715095E-06   -0.191497E-06    0.176195E-05    0.830429E-06    0.964547E+00    0.209381E+00
    10    5    2      0.0000      0.0000    0.236649E-01    0.529397E+00   -0.314159E-01    0.432638E+00    0.448691E+01    0.248044E+01
    10    5    3      0.0000      0.0000   -0.575221E-02   -0.281950E-02   -0.440649E-02   -0.284250E-02    0.371115E+00    0.792363E+00
    10    5    4      0.0000      0.0000    0.000000E+00    0.000000E+00    0.000000E+00    0.000000E+00    0.000000E+00    0.000000E+00
    10    5    5      0.0000      0.0000    0.277949E-21    0.000000E+00    0.165657E-22    0.000000E+00    0.341569E+01    0.000000E+00
    10    5    6      0.0000      0.0000    0.128297E+00    0.247445E+00    0.806226E-01    0.213436E+00    0.336071E+00   -0.361832E+00
    10    5    7      0.0000      0.0000   -0.313570E-01   -0.974618E-01   -0.161660E-01   -0.822318E-01   -0.102047E+00    0.423260E+00
    10    5    8      0.0000      0.0000   -0.179782E-05    0.105243E-06    0.116243E-05    0.169453E-06    0.410359E-02   -0.656943E-02
    10    5    9      0.0000      0.0000   -0.139993E-05   -0.132983E-06    0.783941E-06   -0.944974E-06   -0.697701E+00    0.501339E-01
    10    6    2      0.0000      0.0000   -0.194225E-08    0.135353E-09    0.751807E-09   -0.220698E-09   -0.864787E+00   -0.284685E+01
    10    6    3      0.0000      0.0000    0.599251E-09   -0.262701E-08    0.433495E-09    0.746163E-09    0.276359E+00    0.257342E+00
    10    6    4      0.0000      0.0000    0.399284E-01    0.224635E+00   -0.805223E-01   -0.266843E+00    0.885926E+00    0.134178E+01
    10    6    5      0.0000      0.0000    0.128297E+00   -0.247445E+00    0.806226E-01   -0.213436E+00    0.204566E+00    0.116172E+00
    10    6    6      0.0000      0.0000    0.000000E+00    0.000000E+00    0.000000E+00    0.000000E+00   -0.171394E+01    0.111022E-15
    10    6    7      0.0000      0.0000    0.108201E-07    0.165679E-07    0.462167E-08    0.434768E-08   -0.897243E+00    0.110800E+01
    10    6    8      0.0000      0.0000   -0.552558E-01    0.848367E-01    0.137423E+00   -0.245190E-01    0.128557E+01    0.134900E+01
    10    6    9      0.0000      0.0000    0.308800E-01    0.136135E+00   -0.566540E-01    0.839101E-01    0.401677E+00   -0.374483E+00
    10    7    2      0.0000      0.0000   -0.107537E-07    0.555345E-08    0.393581E-08    0.119072E-07   -0.680026E+00   -0.448493E+00
    10    7    3      0.0000      0.0000    0.202079E-07   -0.873190E-08   -0.122052E-08   -0.738825E-08    0.221913E+00    0.123553E+00
    10    7    4      0.0000      0.0000   -0.281819E-01   -0.789255E-01    0.454632E-01    0.917337E-01   -0.436083E+00   -0.437595E+00
    10    7    5      0.0000      0.0000   -0.313570E-01    0.974618E-01   -0.161660E-01    0.822318E-01   -0.188189E+00   -0.616872E+00
    10    7    6      0.0000      0.0000    0.108201E-07   -0.165679E-07    0.462167E-08   -0.434768E-08   -0.866567E+00   -0.116461E+01
    10    7    7      0.0000      0.0000    0.000000E+00    0.000000E+00    0.000000E+00    0.000000E+00   -0.223888E+01   -0.971445E-16
    10    7    8      0.0000      0.0000   -0.368927E-02    0.848242E-02    0.120079E-01   -0.429638E-02   -0.429111E+00    0.868467E+00
    10    7    9      0.0000      0.0000    0.485002E-02    0.117950E-01   -0.382932E-02    0.841990E-02   -0.102095E+00   -0.911715E+00
    10    8    2      0.0000      0.0000    0.264628E-02    0.182953E-01   -0.208877E-01   -0.146056E-01    0.521521E+00   -0.821682E+00
    10    8    3      0.0000      0.0000   -0.468642E-02   -0.174674E-02    0.617859E-02   -0.306228E-02    0.512696E+00    0.207287E+00
    10    8    4      0.0000      0.0000    0.152448E-05   -0.988203E-06    0.588834E-06   -0.870175E-06   -0.683843E+00   -0.151302E+01
    10    8    5      0.0000      0.0000   -0.179782E-05   -0.105243E-06    0.116243E-05   -0.169453E-06    0.207919E+00   -0.163612E+00
    10    8    6      0.0000      0.0000   -0.552558E-01   -0.848367E-01    0.137423E+00    0.245190E-01    0.117208E+01   -0.134192E+01
    10    8    7      0.0000      0.0000   -0.368927E-02   -0.848242E-02    0.120079E-01    0.429638E-02   -0.435789E+00   -0.867433E+00
    10    8    8      0.0000      0.0000   -0.634465E-15    0.000000E+00   -0.146561E-14    0.000000E+00   -0.559293E+01    0.000000E+00
    10    8    9      0.0000      0.0000    0.000000E+00    0.000000E+00    0.000000E+00    0.000000E+00    0.000000E+00    0.000000E+00
    10    9    2      0.0000      0.0000   -0.155607E-01    0.201864E-01    0.294901E-02    0.182493E-01    0.593154E+00    0.332281E+01
    10    9    3      0.0000      0.0000   -0.277174E-02   -0.631415E-02   -0.471474E-02   -0.166898E-02    0.624840E+00   -0.925212E+00
    10    9    4      0.0000      0.0000    0.715095E-06    0.191497E-06    0.176195E-05   -0.830429E-06   -0.501878E+00   -0.115455E+01
    10    9    5      0.0000      0.0000   -0.139993E-05    0.132983E-06    0.783941E-06    0.944974E-06   -0.117606E+00   -0.110840E+00
    10    9    6      0.0000      0.0000    0.308800E-01   -0.136135E+00   -0.566540E-01   -0.839101E-01    0.430703E+00    0.426056E+00
    10    9    7      0.0000      0.0000    0.485002E-02   -0.117950E-01   -0.382932E-02   -0.841990E-02   -0.112425E+00    0.924672E+00
    10    9    8      0.0000      0.0000    0.000000E+00    0.000000E+00    0.000000E+00    0.000000E+00    0.000000E+00    0.000000E+00
    10    9    9      0.0000      0.0000    0.634465E-15    0.000000E+00    0.146561E-14    0.000000E+00   -0.891648E+00    0.000000E+00

     Unfolding on the coarse grid
     elphon_wrap  :      0.01s CPU      0.52s WALL (       1 calls)

     INITIALIZATION: 




     Electron-Phonon interpolation
     ephwann      :      0.18s CPU      1.47s WALL (       1 calls)
     ep-interp    :      0.08s CPU      0.40s WALL (      10 calls)
     PH SELF-ENER :      0.00s CPU      0.00s WALL (      10 calls)

     DynW2B       :      0.00s CPU      0.00s WALL (      10 calls)
     HamW2B       :      0.00s CPU      0.36s WALL (      23 calls)
     ephW2Bp      :      0.01s CPU      0.16s WALL (      10 calls)
     ephW2B       :      0.00s CPU      0.00s WALL (      10 calls)
     vmewan2bloch :      0.00s CPU      0.10s WALL (      20 calls)
     vmewan2bloch :      0.00s CPU      0.10s WALL (      20 calls)


     Total program execution
     EPW          :      0.18s CPU      2.15s WALL

     ===============================================================================
     The functionality-dependent EPW.bib file was created with suggested citations. 
     Please consider citing the papers listed in EPW.bib.                           
     ===============================================================================
                                                                                    
